1/geom.data (written by ASE) 

416 	 atoms 
3  atom types
0.0      22.160819037334885  xlo xhi
0.0      22.160854373305042  ylo yhi
0.0      22.159878323831556  zlo zhi


Masses 

1            6.94000000    # Li_atom 
2           30.97376199    # P_atom 
3           32.06499999    # S_atom 

Atoms 

     1   0   2   0.0      11.014424615940891      10.271938492881358      13.157908625790576
     2   0   3   0.0      8.9698214719004365      10.065208014676115       13.46555903716143
     3   0   3   0.0      11.353563332260684      9.5198155549830137      11.256838932773979
     4   0   3   0.0      11.726553515134404      12.287175124771888      13.108742279470274
     5   0   3   0.0      11.807690258984959      9.2967189732568869      14.723302285689005
     6   0   2   0.0    0.069575966089695962      11.296957629535225      19.048289918453889
     7   0   3   0.0      22.137103321385695      13.190486101590032      18.158055420672465
     8   0   3   0.0      22.087100237634168      10.016322104641331      17.354165159048506
     9   0   3   0.0     0.67393127366517536      9.8205896336723146      20.394458880506313
    10   0   3   0.0      22.047290760770768      12.098882538131917      21.082852327746277
    11   0   2   0.0      8.2933730155067913      21.272599696828106      17.094786106073485
    12   0   3   0.0      6.4829529414510905      21.483702719003542      16.001733293999227
    13   0   3   0.0      10.031590914048017      21.357287342539461      16.037027384134269
    14   0   3   0.0      8.3875510572601701     0.12828201455516394      18.899131454694608
    15   0   3   0.0      9.3782292758692538      19.630083845831678      18.223262902897247
    16   0   2   0.0      11.496750456869544      1.4592588275472227      6.5185609562055147
    17   0   3   0.0      12.650701625480039      1.0629106135196829      4.7025306943653398
    18   0   3   0.0      9.6276617205756256      1.4924951852354535      5.6873723848143367
    19   0   3   0.0      11.590173385244579     0.14908353415653036      8.1066653031849807
    20   0   3   0.0       12.21001076492872      3.3597450970116802      7.1162140267467677
    21   0   2   0.0      18.288726526949031       2.697827674443404       15.13533548851491
    22   0   3   0.0      18.223912466085547      4.7534753396697509         15.220831648689
    23   0   3   0.0      18.365271294447002      1.9227890811144337      13.202048333147602
    24   0   3   0.0      19.932273266160593      2.1070566823733774      16.175679826977859
    25   0   3   0.0       16.51195932333205      1.8688337339473711      15.756558064462933
    26   0   2   0.0      7.4151657715627346      14.598347016462684      4.3767150075046777
    27   0   3   0.0      7.3095856159780546      12.867107363371128      5.4955705899159879
    28   0   3   0.0      6.2178009047060812      14.623702380200918      2.7189588377557805
    29   0   3   0.0      6.8360536322062417      16.046132512923776      5.7200026098347241
    30   0   3   0.0      9.2945052905332872      14.941748630044412      3.6686138459884843
    31   0   2   0.0       18.96210430109878      9.1261162899650721      6.6639707790364895
    32   0   3   0.0      17.180326640488399      9.0122673001723737      7.6202061948047302
    33   0   3   0.0      18.419130152534024      9.5063975226545931      4.7278947361116446
    34   0   3   0.0       20.21679556478302      10.734974885936509      7.0493683193211263
    35   0   3   0.0      20.028302535971878      7.4645424831015577      6.7806982546699723
    36   0   2   0.0      1.6557497221200717      15.338409324364898      11.096665139306262
    37   0   3   0.0     0.67310235135827345      13.461092955793873      11.892259052665763
    38   0   3   0.0     0.67971294737519161      16.150637775587967       9.468028696382202
    39   0   3   0.0      1.6950003994240874      16.585189702982561      12.702495714672359
    40   0   3   0.0      3.3694507262322424      14.372272849878309      10.489779103626512
    41   0   2   0.0      13.412561950196826      15.169022889810185      20.308560087464585
    42   0   3   0.0      14.362030589739698      13.584810633962705        19.3877151157937
    43   0   3   0.0      11.847555418384644         15.957774447532      19.221091187433874
    44   0   3   0.0      12.672682326790968      14.410017123807425      22.084337447525787
    45   0   3   0.0      14.661521973648087      16.698136822689076      20.956880426046897
    46   0   2   0.0      7.9058663130503195      6.3804982534622967      20.859965025883263
    47   0   3   0.0      6.4945489592926933      6.0890048966303985      19.376650114328239
    48   0   3   0.0      8.3500412144557181      4.4866629130287743      21.710758713912764
    49   0   3   0.0      9.6759823177499626       7.348638626481331      20.242844333887497
    50   0   3   0.0      6.9840414588624782      7.5938498885737609   0.0026526245482851288
    51   0   2   0.0      14.670543006631908      17.465445037478265      11.058997896941104
    52   0   3   0.0       14.47789853318527      18.210311899524545      9.0859925301199542
    53   0   3   0.0      15.691659827870074      18.792351153401498      12.189686277500307
    54   0   3   0.0      12.755842074569017      17.404970248248208      11.871873132681371
    55   0   3   0.0      15.371837961957397      15.548126409259256      10.913502460659577
    56   0   2   0.0      5.3376282942026521      4.5007263070798738      9.8815662088325205
    57   0   3   0.0      4.7570523484953213      3.3784398049846716      8.2784778465769513
    58   0   3   0.0      5.9403837314013295      3.1227403699344354      11.217553223326863
    59   0   3   0.0       6.745831816850254      6.0081443439865794      9.7917238888938982
    60   0   3   0.0      3.5930958265351292      5.3616339335084628      10.770007023940533
    61   0   2   0.0      14.355460379224063      2.0912020062619825      20.867114314183702
    62   0   3   0.0      12.311823818736555        2.37840054014096      20.554677557436765
    63   0   3   0.0      15.454006632962276      3.7964215650054287      21.049611038634726
    64   0   3   0.0      14.413366488326476      1.6710416186330184     0.70601619920906333
    65   0   3   0.0      15.501518472473423     0.23691857034568428      20.830652394179701
    66   0   2   0.0      17.604685209509078      17.487902858182181      3.8630618149011546
    67   0   3   0.0      18.666728471719889       15.96900592008604      3.0295678399657082
    68   0   3   0.0      15.543588433619847      16.925638295789298      3.6124153472367651
    69   0   3   0.0      18.139848211433844      17.720465050632818      5.8488222957836102
    70   0   3   0.0      18.055517430767399       19.35563852597064      2.9481881468394353
    71   0   2   0.0     0.44821233588493087      18.287187991112766      16.898065109501236
    72   0   3   0.0      22.102851034234536      18.658328853064852      18.865252194673612
    73   0   3   0.0      0.2813816122361017       20.04544357505813      15.897337964853072
    74   0   3   0.0      2.2998341980822756       17.64821204968603      17.680948113730448
    75   0   3   0.0    0.039069463359011604      16.723068748192478      15.656175603443337
    76   0   2   0.0      4.5185123842315162      18.164662089981746    0.058583108689867089
    77   0   3   0.0      6.2870323710537761      18.990425593397202      0.9389541854050043
    78   0   3   0.0      4.3286536974202718      16.181156058957747     0.12030044263442261
    79   0   3   0.0      3.0504585554203341      19.603743930402235     0.32255572040600661
    80   0   3   0.0      5.3323200782254734      19.071861321041773       20.66336987867049
    81   0   2   0.0      13.603048199501904      9.1248840233396269      1.0096674820633482
    82   0   3   0.0      13.431396738737767      8.9088876460656898      3.1139442991288364
    83   0   3   0.0      15.655718381295648      9.1221718972012198     0.71152353359551834
    84   0   3   0.0       12.84604140566138       7.457545403310804    0.060874784328921717
    85   0   3   0.0      12.934730192707617      10.897846960099871     0.17664969706179262
    86   0   2   0.0      16.389184637504421      9.5086680628349871      17.377863667271519
    87   0   3   0.0      16.623490298077421      10.733124905163072      18.992720884148198
    88   0   3   0.0      14.979707811530995      7.9778929457061585      18.091968058833466
    89   0   3   0.0      15.469622793972466      10.514633312217017      15.799680989220333
    90   0   3   0.0      18.205800190150619      8.8407371873251943      16.741052772482995
    91   0   2   0.0      20.193759466788933      8.0012642335383397      12.664859796685652
    92   0   3   0.0      18.933094306227016        8.10232472603019      14.220597374734652
    93   0   3   0.0      21.953581949325155      7.3000775220950427      13.326539749183469
    94   0   3   0.0      19.608570448427969       7.488751490014371      10.839596713843836
    95   0   3   0.0      20.594182240047061      10.210980819427506      12.942580900967108
    96   0   2   0.0      6.3418700647812347      18.411891848140652      9.1952759908764516
    97   0   3   0.0      6.6992739209811543      20.018208412936929      7.9965475964411317
    98   0   3   0.0      6.1280384704226796      18.940291495476675      11.143359939864053
    99   0   3   0.0      4.7991042944803466      17.187050655412822       8.731999485496317
   100   0   3   0.0       8.090191181354589      17.364188342254586      9.0540280385295624
   101   0   2   0.0      4.1716463354327749      9.2904226702766586      2.9719926827094958
   102   0   3   0.0      5.2962879426448115      8.6714086101266545      1.3556741092871192
   103   0   3   0.0      5.1071072204516295      10.945995069789717      3.5197942619073701
   104   0   3   0.0      2.5425004800604025      9.8755442233135522      1.9848235658964481
   105   0   3   0.0      4.1498155723687011      7.8801900883121005       4.366123246824273
   106   0   2   0.0      18.842452008296977      21.788272641023017        8.85580483639046
   107   0   3   0.0      17.214439745169731      20.510226000952922      8.1582153244484523
   108   0   3   0.0      19.258186774558805      21.462969002560847      10.753226883952097
   109   0   3   0.0      20.261470801534678      22.139713038894158      7.4328082973985081
   110   0   3   0.0      16.898674099621658     0.44357871868416698      8.8507288736898726
   111   0   2   0.0      3.4443895528669888      6.5465176525447681      15.313811234657212
   112   0   3   0.0      3.4144798504444775      6.2057640117961634      13.353891826190797
   113   0   3   0.0      5.5008784456921935      7.0883191252804361       15.76014444119544
   114   0   3   0.0      2.1625002279988812      7.7925027703654486      16.317279010122871
   115   0   3   0.0      2.8681398210920492      4.6164286428903853      15.946278127259966
   116   0   2   0.0      13.712714062816142      4.1308625204491838       11.65553836501207
   117   0   3   0.0      13.510283263022203      4.3707626974995355      9.6121418658789466
   118   0   3   0.0      11.999893549073464      4.8499087738982558      12.517601154824982
   119   0   3   0.0       13.89718247500204      2.1579586490226341      12.206555443923772
   120   0   3   0.0      15.344836787986928      5.3651407665995983      12.112009084541251
   121   0   2   0.0      10.270432777951187      20.741264949192502      1.4288085908293202
   122   0   3   0.0      8.4141825371264556      20.133674904315686     0.79959493616258615
   123   0   3   0.0      11.680542695542218      19.299850677143279     0.72346600413934137
   124   0   3   0.0      10.767222295459609      22.083601791793548    0.054870940387829942
   125   0   3   0.0      10.480246289994334      21.373639907470725      3.2830824979065758
   126   0   2   0.0      5.3530954305906517      12.040011577099264      13.577939357149676
   127   0   3   0.0       4.291887811014349      13.685652403169787      13.157351837430296
   128   0   3   0.0      4.2974089257925288      10.299536841659574      13.218333043940145
   129   0   3   0.0      7.2281127797822338      11.881382642103256      12.863712526825081
   130   0   3   0.0      5.4837948402809502      11.910736469659042       15.59648283381088
   131   0   2   0.0      14.206391192257806      20.933230287863189      15.712145460818864
   132   0   3   0.0       15.58166854424821       21.14278467411712      14.299947135278188
   133   0   3   0.0      14.358422430650295      22.151669222025383      17.315207321401534
   134   0   3   0.0      12.296988076054749      21.215809584154336      15.097807393798474
   135   0   3   0.0      14.583990221908538      19.294137402358423      16.989505581859088
   136   0   2   0.0      8.2884776576315353      6.3736801034518153       5.478166628605857
   137   0   3   0.0      7.3890498906872208      4.7528165740068582      4.5506312578863168
   138   0   3   0.0      9.5199181165515903      5.8636702720579157      7.0687111527342568
   139   0   3   0.0      9.5833636192725677      7.2758489590423556      4.1687070998868299
   140   0   3   0.0      6.7639764637060686      7.3372528058124225      6.4834407551079289
   141   0   2   0.0      8.2521598048950935      13.836373004340935      18.976867535517812
   142   0   3   0.0      9.3664059162812503      14.193818238446241      17.099005820657496
   143   0   3   0.0         7.8210120441708      15.654355064371527      19.717035414762435
   144   0   3   0.0      6.4320299646953263      12.730766775187382      18.813711006510925
   145   0   3   0.0      9.6310096207087437      12.796960050116382       20.01861836894949
   146   0   2   0.0      22.125192048834922      6.2901506488463435      0.7172844537637314
   147   0   3   0.0      21.690644883907982      8.3314161714091011     0.18788561658468991
   148   0   3   0.0  -0.0096567670969968846       5.831444632857905      2.6863193629669335
   149   0   3   0.0      21.986827793376168      4.4328778474759778      22.035076884426772
   150   0   3   0.0      1.7433390229248698      7.0129292316363792      22.141442518713706
   151   0   2   0.0      14.749584636596708      12.316013261878327      7.9828474106944052
   152   0   3   0.0      13.119309209163763      11.365865358646257      8.8262804087271647
   153   0   3   0.0      16.231155736732134      11.541728066553611      9.1029238417996119
   154   0   3   0.0      14.992448202495902      11.926678728705379      5.9643395592694155
   155   0   3   0.0      14.538262672856813       14.33884637588317      8.2337087003604932
   156   0   2   0.0      18.329390144639092      3.8302858618996076      4.0196177235138242
   157   0   3   0.0      20.201131461311057      3.6829639786432171       4.816035387264769
   158   0   3   0.0      17.017992763872051      5.1640979243865619      4.9172423413353759
   159   0   3   0.0      18.444133269925295      4.4809532903880793      2.1037014195050703
   160   0   3   0.0      17.391941660030565      1.9656150977555193      4.3487961827527464
   161   0   2   0.0      1.3307071238254291      15.852083557361416      3.1398155934534078
   162   0   3   0.0      22.114770322329584      16.625406426680136      4.4734062516241648
   163   0   3   0.0      1.5596776238689567      13.900366068679398      3.7391724653867708
   164   0   3   0.0     0.78613811152213253      16.187657352472183      1.1040448979227344
   165   0   3   0.0      3.0210793865585983      16.685653225365996      3.8493151498997213
   166   0   2   0.0      6.3136178601020649    0.079978981773843855      5.2166611643791025
   167   0   3   0.0      7.4366218999621791      1.6317664364680018      3.9955239105543665
   168   0   3   0.0      6.5574394423748394    0.089572986595995815      7.1632340242171253
   169   0   3   0.0      4.7021322761167967      22.085036508981474       3.938260663576497
   170   0   3   0.0      8.1392958707167615       21.77899321418273      4.3029288967636994
   171   0   2   0.0      3.0162885488718727      0.2394818304375726      18.960382047872017
   172   0   3   0.0      4.6163010265981237       22.11285840121371      17.644521393417627
   173   0   3   0.0      3.1664648008964043    0.088495390534319041      20.930280881290219
   174   0   3   0.0      2.9854651651710817      2.1337004368262678      18.127763532301614
   175   0   3   0.0      1.0630330526566851    0.075862292671450698      18.386857761828985
   176   0   2   0.0      11.006627739183207      5.3098488153667311      15.933202214386494
   177   0   3   0.0      9.1680522864552394        6.02715564507427      16.498310747314576
   178   0   3   0.0      11.966518311186091      5.3137032853150101       17.73224662035058
   179   0   3   0.0       10.76246936954861      3.5264548870275214      15.047289101174687
   180   0   3   0.0      12.176316615634489      6.4892745600388455      14.790459000826484
   181   0   2   0.0     0.35653228671143244      2.4770705200196859      11.330947467952745
   182   0   3   0.0      22.029273946891774      3.8978392327555977      9.6756690843819371
   183   0   3   0.0      2.0582458027162494      3.6063533853032448      11.545577256467078
   184   0   3   0.0   0.0094017332402547959      1.9413190866508425      13.337506499654168
   185   0   3   0.0    0.035942724713050232      1.0216108467483604      9.9745769746910433
   186   0   2   0.0      2.6219026455140142      4.5965027076056515      5.6743261659127233
   187   0   3   0.0      3.8251761884843805      4.7654208614110063      3.9488620498378348
   188   0   3   0.0      2.3984000728035122      2.5477254949958144      6.0522355568715369
   189   0   3   0.0      3.0933763287583904      5.6248805957041537      7.3362814609434084
   190   0   3   0.0      1.0143923025984274      5.3687079479050155      4.8831932855156035
   191   0   2   0.0      18.895184661942952      16.474560407209282      19.709626094681521
   192   0   3   0.0      17.120211198113051      15.581505138333668      20.180846369787051
   193   0   3   0.0      18.571636519346487      17.576959579214861      18.001089980565261
   194   0   3   0.0      19.650211469859695      17.643859921138386       21.22276224212629
   195   0   3   0.0      20.205499998302827      14.880097201241963      19.501984628214387
   196   0   2   0.0      20.045628923718798      11.909567943198542      2.4762993152167341
   197   0   3   0.0      18.696484016362845        13.3427826430823       2.988958987879752
   198   0   3   0.0      20.253739722274098      12.125190178344289     0.40480789031468711
   199   0   3   0.0       21.78655690567361      11.947026300610803      3.4792541266278314
   200   0   3   0.0      19.159186564607822      10.081022794992043      2.5182233226291664
   201   0   2   0.0      17.798154049988636      16.035455400111815      14.805911500298341
   202   0   3   0.0      19.555027997578904      17.002172951447214      14.893385609756733
   203   0   3   0.0        17.2351697184377      15.947393323404244      12.869826775142469
   204   0   3   0.0      17.889879046753059      14.191824001309508      15.739462378285634
   205   0   3   0.0      16.150306184659144      16.652348517695209      15.799055585147267
   206   0   2   0.0      9.0227563776044519      10.836127257666341      1.4222707420938667
   207   0   3   0.0      8.9301961607785252      12.828412450214257      1.4549001061400411
   208   0   3   0.0      8.4399791786017797      10.117329151793495      21.772865120128852
   209   0   3   0.0      10.546577008970869      9.4298918244214125      1.2444852896669847
   210   0   3   0.0      7.1827970182395564      10.088306658068007       2.011000582718101
   211   0   2   0.0      9.4511510086394068      11.071308794731479      7.2346794384388895
   212   0   3   0.0      7.5041867154348552      11.200087341952349      8.0274561787289667
   213   0   3   0.0      9.5490420044870152       10.79834748134877      5.1619387337185332
   214   0   3   0.0      10.373081521038349      12.869240519189603      7.7921829486003169
   215   0   3   0.0      10.464103645153024      9.4843458122701865      8.0018863012388657
   216   0   2   0.0      20.104451962493744       21.93339948167063      19.962002769915561
   217   0   3   0.0      21.247816771602004      21.075318877897377      18.406935026817592
   218   0   3   0.0      19.564422984545647       22.15503730799945       17.78220883902878
   219   0   3   0.0      18.131931744429494      21.437681223968109      20.367140571053195
   220   0   3   0.0      21.208601719954977      22.155647968127873      21.629010436483163
   221   0   2   0.0      8.8041570714811019      16.734612748673054      13.222504545947093
   222   0   3   0.0      7.6371362876110789      15.029004259841729      13.010648102509279
   223   0   3   0.0      9.3209450769444686      17.350602629310011      11.378752040279892
   224   0   3   0.0      7.6758935427527568      18.132923486221319      14.031145482766833
   225   0   3   0.0      10.460159505280025      16.465458736607808      14.402173461952001
   226   0   2   0.0      8.0549132244636112     0.87308464010218456      12.509167932551458
   227   0   3   0.0      6.8345272383482243        2.34670487894339      13.449958104915014
   228   0   3   0.0      6.8431858546911952      22.071942930935997      11.191515135108752
   229   0   3   0.0      9.7795550982651562       1.411509825175556       11.53607605159775
   230   0   3   0.0      8.7114951697199512    0.076227290933157332      14.226293932848185
   231   0   2   0.0      2.3326784317407228      20.573713042374834      8.9338749364407022
   232   0   3   0.0      4.0647750467255852      20.802481314194896      7.9315793820917726
   233   0   3   0.0     0.76398375037999022      20.462221599130999      7.6463945123327015
   234   0   3   0.0      2.3798135242655727      19.468770219589437      10.701489376248073
   235   0   3   0.0       2.451782811806388      22.168823138707644      10.121590795130775
   236   0   2   0.0       19.56749780533379      12.781187406645243      11.385922980214032
   237   0   3   0.0      18.527802369439478      13.270831214091166      13.024533478631263
   238   0   3   0.0      18.620419641772674      13.115044667511162      9.6030161905796199
   239   0   3   0.0      21.012273255568413      14.280778585973911      11.122093202246434
   240   0   3   0.0      20.221716458754603      10.822939256986905        11.0495638860095
   241   0   2   0.0      5.9600676069126104      17.154005850774215      16.820583718885562
   242   0   3   0.0      5.1349630727394748      16.727808827538414      18.611129595829297
   243   0   3   0.0      4.7905215721904053      17.466554855260068      15.156672394913546
   244   0   3   0.0      6.8794763321706691       18.87830151100005      17.252693910707485
   245   0   3   0.0      7.3659436517137236      15.811897848695752      16.315430049092122
   246   0   2   0.0      18.538552288552452      6.5108046822522407       20.66518133393809
   247   0   3   0.0      20.388245663349572      6.0677917554966987       20.04917791847728
   248   0   3   0.0      17.572835407326803      7.6282853621120283      19.354007116743958
   249   0   3   0.0      17.633861582387773      4.8569126524516646      21.344985766935462
   250   0   3   0.0      18.483897341730987      7.7682564211461642    0.049873127183337383
   251   0   2   0.0      9.9715605056549617      18.292689793167309      5.1866456944472823
   252   0   3   0.0      8.6910652190770428      19.612534398429297      6.0036649889885476
   253   0   3   0.0       9.357846031804927      17.808997796622716        3.32636267666842
   254   0   3   0.0      11.868451967577981      19.039389708867063      5.4211678648314781
   255   0   3   0.0      10.421577609645478      16.619080648418759      6.4561821717299006
   256   0   2   0.0      1.7619216450490474      7.5501554652716196       10.12340526427427
   257   0   3   0.0       3.841343564756361      7.0743446228519806      9.6021907231598078
   258   0   3   0.0      1.3478880535945383      9.1580606971274747       9.024661978227682
   259   0   3   0.0     0.37104000419247951      6.0145185333584825      9.8254466356135755
   260   0   3   0.0       1.967116013046408      8.0274913085605011      12.065917742584226
   261   0   1   0.0    0.026437799994741461     0.28758985441352558      2.8327105875792338
   262   0   1   0.0     0.69317898924410426      2.1681403661456069     0.16379248209387762
   263   0   1   0.0    0.074032365056709043      1.5245324873553985      6.1103707622838144
   264   0   1   0.0     0.55326004317237176      5.3198786241447413      14.864334414196291
   265   0   1   0.0     0.53646879942579873       5.798203506306514      19.467921738934869
   266   0   1   0.0     0.55549047578626221      8.7168206996888404      2.4605845256694101
   267   0   1   0.0     0.32017135263443824      9.6585470287637492      6.8164332877931928
   268   0   1   0.0     0.98475594350761042      9.3881360752112908      14.794210494203599
   269   0   1   0.0      1.6671177883005743      12.940532327296717      16.247135464942406
   270   0   1   0.0      1.9127448946997214      13.256951403837595      21.050643315411595
   271   0   1   0.0     0.23409358416210113      16.147166483878976       19.56000583148051
   272   0   1   0.0      0.9115334546639059       18.76786462565725      0.7620406847009803
   273   0   1   0.0     0.13978298639121109      18.569307083534117      11.119343443252513
   274   0   1   0.0     0.58170782443853497      21.686417067189662      14.144703255497936
   275   0   1   0.0       2.714560530808956     0.16766978754478823      5.3373623789365023
   276   0   1   0.0       2.602323172231646       2.761921857683967      2.7830901694899346
   277   0   1   0.0      2.3443431218143682      2.4191148717553559      8.6773475029325873
   278   0   1   0.0      1.6213591486912045      2.3265810685838453      15.944622679495909
   279   0   1   0.0      1.9819373511506175      8.4129395010121346      18.819271842381436
   280   0   1   0.0      2.0353696230993967      12.205949174548167       2.105351299651514
   281   0   1   0.0      2.2781295069171899      12.045130265788384      13.258650709653752
   282   0   1   0.0      2.0182177913761437      13.960114363808509      6.3594533288821316
   283   0   1   0.0      2.6017705594554768      16.341921468453556      15.454326098003392
   284   0   1   0.0      3.0961244159867514      19.446181010212086      19.278936149097849
   285   0   1   0.0      4.6215486459104369      1.6206650176910997      14.974579169892753
   286   0   1   0.0      5.3003957488687492      2.8861724807505662       4.521146614344933
   287   0   1   0.0      3.8374787393235565      1.8034265381182863      11.772106111549864
   288   0   1   0.0      3.6836009339834099      4.4002302193943068      18.222378701325084
   289   0   1   0.0      4.5637128047767384      4.0297707261547524      21.263256968787431
   290   0   1   0.0      4.3827215822165355      6.4161560215858824       1.160523020454298
   291   0   1   0.0      3.9991963671548372      8.1928742806122496       6.897401083759676
   292   0   1   0.0      4.8846002090095171      7.5078668728222917      18.165046753565338
   293   0   1   0.0       4.288772654577981      12.063838905388529      9.6296457671232183
   294   0   1   0.0      4.2901320407276087      12.338048621141009      17.577635567599103
   295   0   1   0.0      4.9053804323919632      13.619796050095271      21.541533518849207
   296   0   1   0.0      3.2179394903186092      15.283828510876738      18.378313209094181
   297   0   1   0.0      4.2093767801613806      18.347281134789895      2.6123812910888322
   298   0   1   0.0      3.3671522479186535      18.465991461451779      7.0956291815617165
   299   0   1   0.0      4.1455473638525513      19.942704835943662      15.270435608295886
   300   0   1   0.0      4.7420846397383452      21.478075829399362      0.4225096569770096
   301   0   1   0.0      4.3660099227542171      20.543961332467184      11.885002882588529
   302   0   1   0.0      6.2861705991943211       1.354630431318024      18.872672172834822
   303   0   1   0.0      5.9850313848968373      4.9242630169281467      6.7963584735980511
   304   0   1   0.0       6.234890435810299      4.6345776546134836      16.058208079240011
   305   0   1   0.0      5.0796511184852129      7.9734040389340199      12.720284815262922
   306   0   1   0.0      5.8572748022654046      9.5285453641328424      15.377798820295453
   307   0   1   0.0      6.6518081570003451      10.868915501428301      20.432485548335105
   308   0   1   0.0      5.0331207389587052      13.089539205432141      4.3925896286957142
   309   0   1   0.0      5.3897292776171541       15.09421189959594      7.5487003104846684
   310   0   1   0.0      5.5589094576323781       16.22278378619982      11.863219236643925
   311   0   1   0.0      6.8266165312584306      20.192987994859219      19.375594681703081
   312   0   1   0.0      7.5133579811197757      1.9120104961951307      9.5880593627103874
   313   0   1   0.0      8.1199750367635541      4.5107467582084766      2.1538958601197722
   314   0   1   0.0      7.6413273800406394      7.6764321080564271       2.603678116611345
   315   0   1   0.0      8.2594473974489464      8.2891268373780349      11.759983487583419
   316   0   1   0.0      8.1104116092546192      7.5581386186364723      15.020902656690598
   317   0   1   0.0      7.2968315978850979      9.6690580223604243      5.9672662124503963
   318   0   1   0.0      7.3846048793653303      13.414926597516253      10.948083515533416
   319   0   1   0.0      7.4020818424040815      13.095061295616128      16.217869550196621