LAMMPS (15 Sep 2022)
  using 1 OpenMP thread(s) per MPI task
# /home/carsten/Documents/PhD/LPS/MD_GAP/polarise/MD_GAP_CS.in (written by LAMMPScs 2.1 on Mon Jun 17 10:42:15 2019)

# ------------------------------ INITIALIZATION -------------------------------
units      metal
dimension  3
boundary   p p p
atom_style full
newton     on off
# ----------------------------- ATOM DEFINITION -------------------------------
read_data geom.data
Reading data file ...
  orthogonal box = (0 0 0) to (22.160819 22.160854 22.159878)
  4 by 6 by 3 MPI processor grid
  reading atoms ...
  416 atoms
Finding 1-2 1-3 1-4 neighbors ...
  special bond factors lj:    0        0        0       
  special bond factors coul:  0        0        0       
     0 = max # of 1-2 neighbors
     0 = max # of 1-3 neighbors
     0 = max # of 1-4 neighbors
     1 = max # of special neighbors
  special bonds CPU = 0.002 seconds
  read_data CPU = 0.031 seconds
timer timeout 24:00:00 every 100
New timer settings: style=normal  mode=nosync  timeout=00:00:00
# ------------------------------ ATOM GROUPING --------------------------------
group Li_atoms type 1
156 atoms in group Li_atoms
group P_atoms type 2
52 atoms in group P_atoms
group S_atoms type 3
208 atoms in group S_atoms

neighbor 2.0 bin
comm_modify vel yes

# ------------------------- GAP Potential ---------------------------


pair_style quip
pair_coeff      * * /u/thuss/templates/gaps/naps/gp_2b_soap.xml "IP GAP label=GAP_2023_2_8_0_13_56_52_159" 11 15 16

reset_timestep 0
# ------------------------ DEFINE COMPUTES --------------------------

compute thermo_press_lmp all pressure thermo_temp
compute ke_tech all ke
compute epot_tech all pe
compute vacf_p P_atoms vacf
compute vacf_s S_atoms vacf
compute msd_li Li_atoms msd com yes
variable etotal_tech equal c_ke_tech+c_epot_tech
variable temp_phys equal c_thermo_temp
variable ke_phys equal ke
variable etot_phys equal etotal
variable vol_v equal vol
variable T equal "500"

# ---------------------------------- TIMESTEP ------------------------------------
timestep 0.002

# ------------------------ RUNS ---------------------------
dump equiatoms all atom 500 geom.dump
dump_modify equiatoms scale no

thermo 100 # every 0.1
thermo_style custom step etotal pe ke temp press

fix therm_equ all nvt temp 300 600 1.0
run 50000
Neighbor list info ...
  update: every = 1 steps, delay = 0 steps, check = yes
  max neighbors/atom: 2000, page size: 100000
  master list distance cutoff = 8
  ghost atom cutoff = 8
  binsize = 4, bins = 6 6 6
  1 neighbor lists, perpetual/occasional/extra = 1 0 0
  (1) pair quip, perpetual
      attributes: full, newton on
      pair build: full/bin
      stencil: full/bin/3d
      bin: standard
Per MPI rank memory allocation (min/avg/max) = 8.049 | 8.05 | 8.052 Mbytes
   Step         TotEng         PotEng         KinEng          Temp          Press     
         0  -3437686.6     -3437686.6      0              0              41855.632    
       100  -3437693.3     -3437771.8      78.570889      1464.7008      13651.648    
       200  -3437704.7     -3437782        77.331767      1441.6014      8672.6645    
       300  -3437718.8     -3437788.5      69.683848      1299.0306      11971.577    
       400  -3437732.3     -3437799.7      67.38597       1256.1941      3666.4332    
       500  -3437745.4     -3437808.7      63.302302      1180.0673      5358.0699    
       600  -3437757.4     -3437816.3      58.843539      1096.948       2873.1411    
       700  -3437768.5     -3437823        54.521496      1016.3775      369.51448    
       800  -3437778.5     -3437827.9      49.373409      920.40798     -426.35139    
       900  -3437787.5     -3437832.4      44.884323      836.72346     -4940.4116    
      1000  -3437795.5     -3437837.8      42.288873      788.33966     -814.7337     
      1100  -3437802.4     -3437840.6      38.247754      713.00602     -3747.5645    
      1200  -3437808.5     -3437844.9      36.338071      677.40616     -6972.9743    
      1300  -3437814.1     -3437846        31.897436      594.62484     -6213.6946    
      1400  -3437819       -3437849.3      30.3223        565.26151     -5173.1186    
      1500  -3437823.4     -3437850.7      27.33115       509.50115     -4631.571     
      1600  -3437827.4     -3437854.4      27.009035      503.49636     -7960.0585    
      1700  -3437831       -3437856.4      25.323365      472.07248     -3889.777     
      1800  -3437834.4     -3437857.3      22.883979      426.59798     -2473.8354    
      1900  -3437837.4     -3437859.2      21.844629      407.22265     -5218.4895    
      2000  -3437840.1     -3437862.9      22.820272      425.41038     -5202.7539    
      2100  -3437842.5     -3437863.9      21.430437      399.50139     -6660.7659    
      2200  -3437844.7     -3437864.4      19.685945      366.98096     -2203.4471    
      2300  -3437846.6     -3437865.6      19.04405       355.01489     -5495.4278    
      2400  -3437848.3     -3437866.1      17.818762      332.17335     -6593.8585    
      2500  -3437849.7     -3437866.7      16.972428      316.39618     -3240.6681    
      2600  -3437851       -3437868.1      17.060392      318.03599     -6788.8829    
      2700  -3437852.1     -3437869        16.875475      314.58881     -5714.9807    
      2800  -3437853       -3437868.3      15.257369      284.42444     -4483.8582    
      2900  -3437853.8     -3437868.8      14.963774      278.9513      -4840.7656    
      3000  -3437854.5     -3437869.3      14.820157      276.27404     -5754.3643    
      3100  -3437854.9     -3437870.3      15.33564       285.88356     -5533.787     
      3200  -3437855.3     -3437869.9      14.653933      273.17532     -5466.018     
      3300  -3437855.4     -3437869.7      14.286284      266.32169     -5643.7768    
      3400  -3437855.4     -3437871        15.657648      291.88636     -6528.5262    
      3500  -3437855.2     -3437868.8      13.641528      254.3023      -6103.4439    
      3600  -3437854.8     -3437869.8      15.007338      279.76342     -5901.5812    
      3700  -3437854.3     -3437869.6      15.258393      284.44354     -4908.2026    
      3800  -3437853.7     -3437869.8      16.159947      301.25011     -5135.29      
      3900  -3437852.9     -3437868.7      15.816796      294.85315     -3788.7974    
      4000  -3437852.1     -3437868.7      16.643811      310.27018     -4601.923     
      4100  -3437851.2     -3437868.1      16.906373      315.1648      -6357.325     
      4200  -3437850.3     -3437868.1      17.787949      331.59895     -6282.1197    
      4300  -3437849.4     -3437867.8      18.445031      343.84812     -3059.1807    
      4400  -3437848.6     -3437867.1      18.50212       344.91236     -4121.7534    
      4500  -3437847.8     -3437866.1      18.321671      341.54847     -5491.7231    
      4600  -3437847.2     -3437866.3      19.09926       356.0441      -4833.3312    
      4700  -3437846.6     -3437865.4      18.798456      350.43659     -6099.4797    
      4800  -3437846.2     -3437865.2      19.03365       354.82103     -4899.5023    
      4900  -3437845.9     -3437865.4      19.437498      362.34946     -6991.6308    
      5000  -3437845.8     -3437866.1      20.22205       376.9749      -5034.0906    
      5100  -3437845.9     -3437865.7      19.760791      368.37621     -5336.1296    
      5200  -3437846.1     -3437866.2      20.03725       373.52991     -6692.9543    
      5300  -3437846.5     -3437865.7      19.19235       357.77947     -5539.0258    
      5400  -3437846.9     -3437866.1      19.161904      357.2119      -4780.2745    
      5500  -3437847.5     -3437865.1      17.610559      328.29208     -5030.4617    
      5600  -3437848.1     -3437867.2      19.108607      356.21835     -6052.092     
      5700  -3437848.8     -3437866.4      17.607318      328.23166     -4462.0883    
      5800  -3437849.4     -3437867.6      18.239144      340.01003     -4519.0775    
      5900  -3437850       -3437867.3      17.312949      322.7441      -5996.5577    
      6000  -3437850.6     -3437868.7      18.094221      337.3084      -5180.8113    
      6100  -3437851.1     -3437868.4      17.348348      323.40401     -6919.8535    
      6200  -3437851.5     -3437868.2      16.666942      310.70139     -8288.3218    
      6300  -3437851.8     -3437868.2      16.379389      305.34088     -3739.1198    
      6400  -3437852.1     -3437869        16.918509      315.39103     -6823.1692    
      6500  -3437852.2     -3437868.9      16.682876      310.99842     -4229.0341    
      6600  -3437852.2     -3437868.9      16.66384       310.64355     -5236.5701    
      6700  -3437852.1     -3437869.3      17.160793      319.90764     -6055.5115    
      6800  -3437851.9     -3437868.2      16.26484       303.20549     -5297.4468    
      6900  -3437851.6     -3437868.7      17.136299      319.45103     -5839.605     
      7000  -3437851.1     -3437869.3      18.162198      338.5756      -4998.1518    
      7100  -3437850.6     -3437867.8      17.21107       320.84489     -5869.0145    
      7200  -3437850       -3437868        18.06092       336.68762     -5198.7061    
      7300  -3437849.4     -3437867.8      18.466107      344.24101     -3293.0459    
      7400  -3437848.7     -3437867.2      18.444022      343.82932     -5930.4506    
      7500  -3437848.1     -3437865.8      17.619768      328.46375     -4673.6712    
      7600  -3437847.6     -3437866.5      18.926348      352.82072     -5713.5921    
      7700  -3437847       -3437867        19.928115      371.49544     -5121.9814    
      7800  -3437846.6     -3437866.2      19.680304      366.8758      -4441.1323    
      7900  -3437846.1     -3437866.6      20.432087      380.89038     -5443.309     
      8000  -3437845.8     -3437865.1      19.2781        359.37801     -5470.5815    
      8100  -3437845.7     -3437865.9      20.199141      376.54785     -4742.297     
      8200  -3437845.6     -3437866.5      20.875002      389.14709     -5046.9556    
      8300  -3437845.7     -3437866.7      20.954011      390.61996     -4264.9642    
      8400  -3437846       -3437866.7      20.766367      387.12194     -6576.5525    
      8500  -3437846.3     -3437867        20.639288      384.75297     -5255.8055    
      8600  -3437846.8     -3437867.9      21.079831      392.96546     -5454.9328    
      8700  -3437847.3     -3437867        19.677516      366.82382     -6640.4065    
      8800  -3437847.9     -3437866.6      18.737466      349.29962     -3778.3886    
      8900  -3437848.5     -3437867.3      18.83418       351.10255     -6918.5478    
      9000  -3437849.1     -3437868.1      19.081078      355.70516     -4443.7332    
      9100  -3437849.6     -3437868.2      18.607527      346.87734     -5829.693     
      9200  -3437850.1     -3437867.5      17.446117      325.2266      -4591.5563    
      9300  -3437850.5     -3437868.9      18.329901      341.70189     -6105.8613    
      9400  -3437850.9     -3437868.8      17.935075      334.34163     -5940.1839    
      9500  -3437851.2     -3437869.7      18.44211       343.79367     -6015.9044    
      9600  -3437851.5     -3437869.9      18.40492       343.10038     -3969.7594    
      9700  -3437851.6     -3437869.7      18.104914      337.50773     -5517.239     
      9800  -3437851.8     -3437870.4      18.691348      348.4399      -3951.3287    
      9900  -3437851.8     -3437869.1      17.320803      322.89051     -6060.9966    
     10000  -3437851.7     -3437869.8      18.026904      336.05349     -6847.5912    
     10100  -3437851.6     -3437869.7      18.11793       337.75037     -4304.144     
     10200  -3437851.4     -3437870.1      18.705957      348.71225     -5248.0991    
     10300  -3437851.1     -3437870        18.920441      352.7106      -6577.8164    
     10400  -3437850.7     -3437870        19.304794      359.87563     -3999.9173    
     10500  -3437850.2     -3437867.6      17.384658      324.08089     -5700.1072    
     10600  -3437849.7     -3437869.4      19.684877      366.96104     -4748.2922    
     10700  -3437849.2     -3437870        20.789051      387.5448      -6855.226     
     10800  -3437848.7     -3437868.4      19.682778      366.92192     -6888.6874    
     10900  -3437848.2     -3437867.5      19.289531      359.59109     -3341.7945    
     11000  -3437847.8     -3437867        19.234454      358.56436     -5888.2946    
     11100  -3437847.4     -3437866.9      19.573389      364.88271     -5891.51      
     11200  -3437847       -3437866.7      19.707449      367.38183     -4406.6841    
     11300  -3437846.8     -3437866.6      19.867033      370.35676     -4237.4362    
     11400  -3437846.6     -3437867.2      20.659187      385.12392     -4853.9176    
     11500  -3437846.4     -3437866.7      20.275806      377.97702     -2900.7915    
     11600  -3437846.4     -3437867        20.567435      383.41349     -7182.2832    
     11700  -3437846.4     -3437867.4      20.943472      390.42349     -3262.957     
     11800  -3437846.5     -3437867        20.500199      382.16011     -6178.7355    
     11900  -3437846.7     -3437866.9      20.167565      375.95922     -4922.601     
     12000  -3437846.9     -3437867.3      20.342771      379.22536     -5731.1556    
     12100  -3437847.2     -3437867        19.812775      369.34529     -7305.3113    
     12200  -3437847.5     -3437867.5      20.052192      373.80846     -6440.576     
     12300  -3437847.8     -3437867.5      19.707669      367.38592     -5683.1912    
     12400  -3437848       -3437867        18.936831      353.01614     -7913.0496    
     12500  -3437848.3     -3437867.7      19.434741      362.29806     -5570.3697    
     12600  -3437848.5     -3437867.8      19.315821      360.0812      -5675.9969    
     12700  -3437848.7     -3437868.2      19.552142      364.48663     -4353.3602    
     12800  -3437848.8     -3437868.3      19.491028      363.34736     -5086.1526    
     12900  -3437848.9     -3437869.2      20.242519      377.35649     -9268.2771    
     13000  -3437849       -3437868.1      19.035339      354.85251     -5889.9051    
     13100  -3437849       -3437868.4      19.381737      361.30998     -9397.2455    
     13200  -3437849       -3437868.7      19.690488      367.06565     -5623.5507    
     13300  -3437848.8     -3437868.3      19.437374      362.34715     -5698.1151    
     13400  -3437848.7     -3437868.4      19.698944      367.22328     -6181.5595    
     13500  -3437848.4     -3437868.1      19.698838      367.22131     -4553.1866    
     13600  -3437848.2     -3437867.3      19.113119      356.30246     -5893.8769    
     13700  -3437847.9     -3437867.3      19.471017      362.97433     -3405.3063    
     13800  -3437847.5     -3437867.9      20.364929      379.63842     -4225.1669    
     13900  -3437847.2     -3437867.5      20.367197      379.68071     -7606.732     
     14000  -3437846.8     -3437866.9      20.061595      373.98375     -3637.016     
     14100  -3437846.4     -3437867.9      21.512649      401.03397     -6477.0951    
     14200  -3437846.1     -3437868        21.98009       409.74789     -4014.6537    
     14300  -3437845.7     -3437866.6      20.864418      388.94979     -3568.7429    
     14400  -3437845.4     -3437866.7      21.28529       396.7956      -6109.8131    
     14500  -3437845.1     -3437866.7      21.599849      402.65953     -5361.6537    
     14600  -3437844.9     -3437865.8      20.921566      390.01512     -6211.802     
     14700  -3437844.7     -3437866.9      22.1965        413.78216     -5230.3068    
     14800  -3437844.6     -3437866.6      21.91341       408.50485     -6781.6667    
     14900  -3437844.6     -3437866.9      22.313482      415.96292     -6949.2561    
     15000  -3437844.6     -3437865.6      21.019662      391.84381     -7031.9937    
     15100  -3437844.7     -3437866.7      21.991491      409.96043     -7720.1236    
     15200  -3437844.8     -3437866.3      21.412148      399.16044     -3450.6242    
     15300  -3437845.1     -3437866.8      21.731986      405.1228      -5224.8089    
     15400  -3437845.3     -3437866        20.692689      385.74846     -5911.8714    
     15500  -3437845.6     -3437866.1      20.477122      381.7299      -3101.3774    
     15600  -3437845.9     -3437868.1      22.206634      413.97109     -7409.4553    
     15700  -3437846.2     -3437867.5      21.319496      397.43325     -5791.8542    
     15800  -3437846.4     -3437867.5      21.063135      392.65423     -4805.4332    
     15900  -3437846.7     -3437867.4      20.684165      385.58954     -5152.806     
     16000  -3437846.9     -3437868.6      21.661792      403.81426     -6292.9816    
     16100  -3437847.1     -3437868.6      21.532975      401.41288     -5593.4583    
     16200  -3437847.3     -3437867.5      20.246491      377.43054     -6280.9875    
     16300  -3437847.3     -3437868.3      20.915965      389.91071     -6539.3984    
     16400  -3437847.4     -3437868.4      21.072547      392.82969     -3893.2639    
     16500  -3437847.3     -3437867.3      19.9805        372.47198     -5165.5565    
     16600  -3437847.2     -3437867.3      20.052165      373.80795     -5491.1748    
     16700  -3437847.1     -3437867.9      20.880225      389.24445     -5088.6876    
     16800  -3437846.8     -3437867.7      20.890637      389.43855     -7591.6505    
     16900  -3437846.5     -3437866.9      20.39608       380.21913     -5535.1598    
     17000  -3437846.2     -3437867.3      21.135053      393.99491     -6612.7288    
     17100  -3437845.8     -3437866.9      21.053275      392.47042     -7567.659     
     17200  -3437845.4     -3437866.3      20.986881      391.23273     -6010.6323    
     17300  -3437844.9     -3437866.4      21.525291      401.26963     -6932.7579    
     17400  -3437844.4     -3437866.9      22.509735      419.62141     -3903.4557    
     17500  -3437843.9     -3437865.5      21.559163      401.90106     -7756.3372    
     17600  -3437843.4     -3437866.8      23.314422      434.62222     -6431.8349    
     17700  -3437843       -3437864.8      21.796019      406.31648     -3414.4235    
     17800  -3437842.7     -3437865.8      23.070671      430.07827     -5968.3052    
     17900  -3437842.4     -3437864.6      22.155818      413.02378     -5248.1533    
     18000  -3437842.3     -3437865.6      23.320057      434.72725     -2976.6947    
     18100  -3437842.2     -3437864.2      22.039271      410.85113     -5838.0065    
     18200  -3437842.2     -3437864.9      22.744134      423.99103     -5529.2746    
     18300  -3437842.3     -3437865.2      22.944099      427.71873     -6373.9041    
     18400  -3437842.4     -3437865        22.61222       421.53193     -4815.8103    
     18500  -3437842.5     -3437864.5      21.937196      408.94828     -3643.8335    
     18600  -3437842.7     -3437865.4      22.661271      422.44632     -5648.818     
     18700  -3437843       -3437865.4      22.438121      418.28641     -6315.2345    
     18800  -3437843.2     -3437865.9      22.642858      422.10307     -4479.7869    
     18900  -3437843.5     -3437864.8      21.297476      397.02277     -5012.8436    
     19000  -3437843.7     -3437864.5      20.852985      388.73665     -5652.1005    
     19100  -3437843.9     -3437867.3      23.387266      435.98016     -4280.9822    
     19200  -3437844.1     -3437866.3      22.21285       414.08695     -4608.2291    
     19300  -3437844.2     -3437865.6      21.432788      399.54522     -4447.3438    
     19400  -3437844.3     -3437865.9      21.574985      402.19603     -4614.9112    
     19500  -3437844.3     -3437865.7      21.396908      398.87635     -6181.7072    
     19600  -3437844.3     -3437866.2      21.903787      408.32547     -8235.575     
     19700  -3437844.2     -3437866.1      21.867262      407.64459     -3200.8418    
     19800  -3437844       -3437865.5      21.484349      400.5064      -7354.5944    
     19900  -3437843.7     -3437865.3      21.596957      402.60562     -4520.0521    
     20000  -3437843.3     -3437864.6      21.263269      396.38508     -6179.8855    
     20100  -3437843       -3437865.8      22.815101      425.31398     -4015.8327    
     20200  -3437842.5     -3437864.3      21.798186      406.35689     -3781.1863    
     20300  -3437842.1     -3437863.3      21.188717      394.9953      -5039.3117    
     20400  -3437841.7     -3437864.6      22.956961      427.95851     -3543.1644    
     20500  -3437841.3     -3437864.2      22.990109      428.57643     -6104.6707    
     20600  -3437840.9     -3437863.9      23.009891      428.94521     -5376.8664    
     20700  -3437840.5     -3437864.6      24.112446      449.49879     -5821.1922    
     20800  -3437840.2     -3437863.8      23.54066       438.83968     -4580.0094    
     20900  -3437840       -3437866.4      26.343621      491.09185     -3505.8991    
     21000  -3437839.9     -3437863.7      23.808049      443.8243      -2533.5822    
     21100  -3437839.9     -3437863.9      23.995122      447.31166     -5076.3976    
     21200  -3437839.9     -3437864.5      24.523166      457.15535     -2363.4877    
     21300  -3437840.1     -3437864.7      24.597703      458.54485     -4376.1284    
     21400  -3437840.3     -3437865        24.63955       459.32495     -4259.4785    
     21500  -3437840.6     -3437863.5      22.912222      427.12448     -4920.9611    
     21600  -3437840.9     -3437863.7      22.852412      426.00953     -4924.7936    
     21700  -3437841.1     -3437864.5      23.373189      435.71773     -4126.9608    
     21800  -3437841.4     -3437864.2      22.770993      424.49174     -2650.8561    
     21900  -3437841.7     -3437865.2      23.482805      437.76116     -5158.3793    
     22000  -3437842       -3437865.5      23.500263      438.08661     -5494.898     
     22100  -3437842.3     -3437864.3      22.035291      410.77693     -4888.8548    
     22200  -3437842.5     -3437865        22.520515      419.82237     -5436.9584    
     22300  -3437842.7     -3437865.3      22.547524      420.32587     -4981.7069    
     22400  -3437842.8     -3437864        21.143465      394.15173     -5344.4546    
     22500  -3437842.9     -3437865.7      22.800912      425.04947     -4864.0388    
     22600  -3437842.8     -3437865.1      22.294897      415.61646     -6354.4721    
     22700  -3437842.7     -3437864.9      22.181433      413.50128     -3883.1652    
     22800  -3437842.5     -3437864.4      21.99525       410.03051     -5455.0463    
     22900  -3437842.1     -3437863.6      21.500663      400.81052     -4321.3713    
     23000  -3437841.8     -3437864.6      22.848867      425.94344     -3767.6769    
     23100  -3437841.3     -3437864.4      23.097231      430.57338     -4284.9097    
     23200  -3437840.8     -3437864.9      24.0424        448.19301     -6053.1716    
     23300  -3437840.3     -3437863.3      22.980246      428.39258     -5020.8193    
     23400  -3437839.8     -3437863.1      23.278037      433.94393     -2309.3592    
     23500  -3437839.2     -3437862.7      23.491317      437.91985     -4711.9886    
     23600  -3437838.8     -3437861.9      23.157811      431.70271     -6884.7596    
     23700  -3437838.3     -3437862.9      24.623757      459.03054     -5776.8198    
     23800  -3437837.8     -3437862.3      24.568416      457.99888     -4183.2508    
     23900  -3437837.4     -3437862        24.610223      458.77824     -5820.7445    
     24000  -3437837       -3437861.5      24.505534      456.82666     -4190.4053    
     24100  -3437836.8     -3437860.3      23.540436      438.83551     -6675.9548    
     24200  -3437836.5     -3437862.3      25.764145      480.2894      -2718.0373    
     24300  -3437836.5     -3437861.3      24.854772      463.33707     -5840.063     
     24400  -3437836.5     -3437862.7      26.140881      487.31243     -6112.1146    
     24500  -3437836.7     -3437862.2      25.551009      476.31617     -2078.6721    
     24600  -3437837       -3437862.9      25.889476      482.62579     -4630.4851    
     24700  -3437837.4     -3437862.5      25.072756      467.40067     -5604.7115    
     24800  -3437837.9     -3437863.5      25.565019      476.57733     -4706.3575    
     24900  -3437838.4     -3437863.2      24.785643      462.04839     -4991.3807    
     25000  -3437839       -3437864        24.957483      465.25179     -3041.0254    
     25100  -3437839.6     -3437864.9      25.294239      471.52951     -6259.814     
     25200  -3437840.2     -3437863.5      23.343564      435.16547     -5119.0102    
     25300  -3437840.7     -3437864.9      24.201176      451.15288     -1329.4668    
     25400  -3437841.1     -3437865        23.907677      445.68154     -4782.6174    
     25500  -3437841.5     -3437864.1      22.548119      420.33697     -5840.4083    
     25600  -3437841.7     -3437864.2      22.4538        418.5787      -3818.8603    
     25700  -3437841.9     -3437865.2      23.291573      434.19627     -3708.9998    
     25800  -3437841.9     -3437865.1      23.136758      431.31024     -3540.8372    
     25900  -3437841.9     -3437863.7      21.785901      406.12787     -6931.7325    
     26000  -3437841.7     -3437864.6      22.859893      426.14898     -4016.8608    
     26100  -3437841.5     -3437863.3      21.792531      406.25147     -7211.7136    
     26200  -3437841.1     -3437864.1      23.057066      429.82463     -4589.8077    
     26300  -3437840.6     -3437863.8      23.184037      432.1916      -6450.4113    
     26400  -3437840       -3437863.2      23.130189      431.18779     -4015.7185    
     26500  -3437839.4     -3437864.4      24.967685      465.44198     -7372.4488    
     26600  -3437838.7     -3437864.6      25.900552      482.83227     -2630.7498    
     26700  -3437838       -3437862.6      24.530651      457.29489     -2891.4221    
     26800  -3437837.4     -3437861.9      24.540591      457.48017     -5681.1176    
     26900  -3437836.8     -3437862.1      25.351347      472.5941      -1935.8149    
     27000  -3437836.2     -3437860.6      24.382         454.52376     -5854.035     
     27100  -3437835.7     -3437859.9      24.276941      452.56527     -5402.4839    
     27200  -3437835.2     -3437861.7      26.483765      493.70439     -3454.9343    
     27300  -3437834.8     -3437861.6      26.748287      498.63556     -6384.589     
     27400  -3437834.6     -3437862        27.389568      510.59017     -2663.1822    
     27500  -3437834.5     -3437860.5      26.025405      485.15974     -4610.3552    
     27600  -3437834.6     -3437861.1      26.486901      493.76286     -9052.3988    
     27700  -3437834.7     -3437861        26.288377      490.06202     -2026.5869    
     27800  -3437835       -3437861.1      26.124738      487.01148     -5772.8545    
     27900  -3437835.4     -3437862.3      26.91646       501.77059     -2908.5212    
     28000  -3437835.9     -3437861.6      25.741688      479.87075     -4839.3149    
     28100  -3437836.4     -3437862.8      26.34095       491.04207     -4136.2546    
     28200  -3437837       -3437862.3      25.330249      472.2008      -5450.4992    
     28300  -3437837.5     -3437861.9      24.415971      455.15704     -7664.4516    
     28400  -3437838       -3437862.3      24.320331      453.37414     -3450.5962    
     28500  -3437838.4     -3437862.4      23.980686      447.04256     -5913.5657    
     28600  -3437838.7     -3437863.2      24.495719      456.64369     -3767.2695    
     28700  -3437838.9     -3437864.2      25.24025       470.52307     -3370.3663    
     28800  -3437839.1     -3437863.4      24.27491       452.52742     -4901.7009    
     28900  -3437839.2     -3437864.2      25.007505      466.18429     -4170.0571    
     29000  -3437839.3     -3437863.1      23.83607       444.34665     -5778.7466    
     29100  -3437839.2     -3437863.3      24.171393      450.59768     -8329.745     
     29200  -3437839       -3437863.2      24.206673      451.25536     -6153.1646    
     29300  -3437838.6     -3437862.6      23.929509      446.08853     -5418.0337    
     29400  -3437838.2     -3437862.7      24.520406      457.10389     -5485.9952    
     29500  -3437837.6     -3437862.5      24.925539      464.6563      -8565.8223    
     29600  -3437836.9     -3437862.3      25.352305      472.61197     -6025.5948    
     29700  -3437836.2     -3437860.8      24.632291      459.18963     -3417.9783    
     29800  -3437835.5     -3437863.3      27.778639      517.84315     -5405.7925    
     29900  -3437834.8     -3437860.4      25.632537      477.83599     -3536.4095    
     30000  -3437834.2     -3437861.2      27.086943      504.94871     -6551.2748    
     30100  -3437833.5     -3437859.3      25.761505      480.24018     -5608.9243    
     30200  -3437833       -3437861.5      28.566978      532.53918     -3501.621     
     30300  -3437832.5     -3437858.4      25.927135      483.32782     -4418.917     
     30400  -3437832.1     -3437859.4      27.312315      509.15004     -5096.1003    
     30500  -3437831.8     -3437858.1      26.278014      489.86884     -4990.1004    
     30600  -3437831.6     -3437857.4      25.801212      480.98039     -4484.3138    
     30700  -3437831.4     -3437858.1      26.676755      497.30207     -3785.874     
     30800  -3437831.5     -3437859.7      28.28058       527.20022     -5394.8787    
     30900  -3437831.6     -3437858.5      26.88231       501.13398     -4637.4455    
     31000  -3437831.9     -3437860.8      28.895413      538.6618      -5106.5929    
     31100  -3437832.3     -3437859.1      26.846636      500.46896     -7086.6949    
     31200  -3437832.7     -3437859.9      27.158708      506.28652     -3141.7438    
     31300  -3437833.2     -3437859.8      26.620372      496.25099     -4746.5198    
     31400  -3437833.7     -3437859.2      25.469033      474.78798     -5925.8992    
     31500  -3437834.2     -3437860        25.816028      481.25658     -4686.204     
     31600  -3437834.7     -3437861.1      26.301447      490.30567     -6424.1386    
     31700  -3437835.2     -3437860.3      25.091039      467.7415      -7046.5464    
     31800  -3437835.6     -3437860.7      25.124619      468.36749     -4710.2795    
     31900  -3437835.9     -3437862.9      27.037395      504.02505     -5344.607     
     32000  -3437836.1     -3437861.6      25.506682      475.48983     -7012.7845    
     32100  -3437836.3     -3437861.3      25.06798       467.31164     -4215.5961    
     32200  -3437836.3     -3437861.7      25.333089      472.25374     -4355.834     
     32300  -3437836.2     -3437860.1      23.853083      444.66381     -5423.4897    
     32400  -3437836.1     -3437860.6      24.567378      457.97954     -6925.5465    
     32500  -3437835.8     -3437861.3      25.53302       475.98082     -5274.1966    
     32600  -3437835.5     -3437861        25.544006      476.18561     -4100.4958    
     32700  -3437835.1     -3437860        24.968178      465.45115     -5345.4509    
     32800  -3437834.6     -3437861.2      26.65328       496.86446     -4806.9644    
     32900  -3437834       -3437861.5      27.466901      512.0318      -4197.5001    
     33000  -3437833.5     -3437861.7      28.262753      526.86788     -8887.9129    
     33100  -3437832.9     -3437860.5      27.590356      514.33321     -3102.3422    
     33200  -3437832.3     -3437859.6      27.315977      509.21831     -4655.1024    
     33300  -3437831.8     -3437858.7      26.876794      501.03115     -4894.1921    
     33400  -3437831.3     -3437858.7      27.373884      510.29779     -4579.8749    
     33500  -3437830.9     -3437859.8      28.902269      538.78961     -5812.5551    
     33600  -3437830.5     -3437859        28.489843      531.10124     -4351.787     
     33700  -3437830.2     -3437858.1      27.877582      519.68761     -4159.5717    
     33800  -3437830       -3437859.1      29.039706      541.35167     -5912.3311    
     33900  -3437829.9     -3437858.9      28.977848      540.19853     -3402.537     
     34000  -3437829.9     -3437858.7      28.716898      535.33395     -6260.2155    
     34100  -3437830.1     -3437857.8      27.725161      516.84622     -4109.085     
     34200  -3437830.3     -3437857.5      27.17718       506.63088     -3881.5546    
     34300  -3437830.6     -3437858.1      27.527364      513.15893     -5015.169     
     34400  -3437831       -3437859.5      28.569493      532.58606     -4744.1359    
     34500  -3437831.4     -3437858.4      26.992458      503.18732     -5765.6894    
     34600  -3437832       -3437858.8      26.807438      499.73823     -4947.2588    
     34700  -3437832.5     -3437860        27.507356      512.78595     -4651.0751    
     34800  -3437832.9     -3437858.7      25.727945      479.61456     -5159.1958    
     34900  -3437833.4     -3437860.9      27.568506      513.9259      -3885.5932    
     35000  -3437833.7     -3437861.5      27.73825       517.09022     -5466.6434    
     35100  -3437834       -3437861.6      27.571096      513.97418     -5695.6024    
     35200  -3437834.3     -3437861.5      27.235655      507.72096     -5991.7811    
     35300  -3437834.4     -3437860.7      26.338102      490.98897     -6193.5222    
     35400  -3437834.4     -3437859.8      25.338393      472.35262     -5572.7012    
     35500  -3437834.4     -3437861.6      27.209622      507.23566     -6572.5774    
     35600  -3437834.3     -3437860.3      26.025811      485.16732     -1988.7388    
     35700  -3437834.1     -3437860        25.947255      483.70288     -3571.2602    
     35800  -3437833.8     -3437859.3      25.500215      475.36928     -9753.9807    
     35900  -3437833.4     -3437859.6      26.201771      488.44752     -3801.1326    
     36000  -3437832.9     -3437859.4      26.566732      495.25105     -7150.5068    
     36100  -3437832.3     -3437860.1      27.815661      518.5333      -5694.5439    
     36200  -3437831.7     -3437859        27.374327      510.30604     -2565.9354    
     36300  -3437831       -3437857.7      26.613362      496.1203      -7813.5678    
     36400  -3437830.4     -3437857.9      27.521814      513.05548     -3636.7598    
     36500  -3437829.9     -3437858.4      28.534526      531.93421     -3586.5563    
     36600  -3437829.4     -3437857.4      28.026818      522.46963     -6722.0594    
     36700  -3437829       -3437857.9      28.914797      539.02314     -5957.0692    
     36800  -3437828.7     -3437857.9      29.207         544.47032     -6465.8215    
     36900  -3437828.4     -3437857.6      29.192946      544.20834     -4788.2222    
     37000  -3437828.3     -3437856.5      28.216526      526.00614     -4959.6659    
     37100  -3437828.2     -3437857.3      29.061024      541.74907     -6409.406     
     37200  -3437828.2     -3437857.1      28.914939      539.0258      -6683.9888    
     37300  -3437828.3     -3437856.8      28.482259      530.95987     -6171.0682    
     37400  -3437828.4     -3437857.6      29.230525      544.90887     -4080.0484    
     37500  -3437828.6     -3437857.4      28.859044      537.9838      -5859.988     
     37600  -3437828.8     -3437856.3      27.573559      514.02009     -6493.1546    
     37700  -3437829       -3437858        29.023431      541.04827     -5379.7945    
     37800  -3437829.2     -3437856.9      27.628674      515.04752     -8189.8345    
     37900  -3437829.5     -3437858.6      29.103409      542.53921     -3903.3053    
     38000  -3437829.8     -3437857.3      27.467373      512.04059     -1812.1336    
     38100  -3437830.1     -3437857.9      27.814911      518.51931     -9166.4505    
     38200  -3437830.4     -3437858.2      27.777218      517.81665     -2388.3277    
     38300  -3437830.7     -3437858.7      28.020865      522.35866     -4621.2259    
     38400  -3437830.9     -3437857.7      26.801146      499.62094     -4239.1539    
     38500  -3437831       -3437858.1      27.12175       505.59756     -5767.5724    
     38600  -3437831       -3437859.2      28.234467      526.34059     -2843.0851    
     38700  -3437830.9     -3437858.2      27.237322      507.75204     -5666.2482    
     38800  -3437830.8     -3437858.7      27.873893      519.61885     -2924.4897    
     38900  -3437830.6     -3437859.4      28.796745      536.82244     -3070.6513    
     39000  -3437830.3     -3437858.6      28.234622      526.34348     -3195.1245    
     39100  -3437830       -3437858.4      28.415363      529.7128      -4028.6246    
     39200  -3437829.7     -3437858.3      28.632248      533.75593     -3460.0761    
     39300  -3437829.3     -3437857.8      28.517192      531.61109     -4812.2412    
     39400  -3437828.9     -3437857.7      28.83512       537.53782     -3477.5217    
     39500  -3437828.4     -3437857.1      28.656305      534.2044      -3238.757     
     39600  -3437828       -3437856.6      28.612396      533.38586     -3642.5765    
     39700  -3437827.6     -3437856.1      28.496478      531.22493     -4234.9557    
     39800  -3437827.2     -3437856.4      29.181501      543.99498     -3485.6326    
     39900  -3437826.8     -3437855.3      28.512684      531.52705     -4812.0179    
     40000  -3437826.5     -3437857.1      30.631435      571.02432     -2101.0687    
     40100  -3437826.3     -3437856.2      29.939176      558.11938     -5617.122     
     40200  -3437826.1     -3437856.5      30.394403      566.60563     -3894.0205    
     40300  -3437825.9     -3437855.8      29.885156      557.11236     -6116.6009    
     40400  -3437825.8     -3437855.7      29.893485      557.26763     -2221.0976    
     40500  -3437825.8     -3437856.1      30.338464      565.56282     -4059.5601    
     40600  -3437825.8     -3437854.6      28.757535      536.09149     -4034.6873    
     40700  -3437825.9     -3437857.2      31.323454      583.92479     -1987.1159    
     40800  -3437826       -3437855.8      29.808167      555.67715     -3593.9821    
     40900  -3437826.2     -3437855.8      29.586946      551.55319     -6030.5337    
     41000  -3437826.4     -3437855.7      29.29118       546.0396      -4293.8974    
     41100  -3437826.6     -3437856.5      29.840824      556.28593     -4292.6452    
     41200  -3437826.9     -3437856.9      29.989175      559.05146     -2911.4928    
     41300  -3437827.1     -3437857        29.912555      557.62311     -4114.3917    
     41400  -3437827.4     -3437857.2      29.786287      555.26927     -6050.2322    
     41500  -3437827.6     -3437856.9      29.329297      546.75016     -5618.875     
     41600  -3437827.7     -3437857.4      29.754593      554.67843     -3414.4822    
     41700  -3437827.8     -3437857.1      29.306807      546.33091     -5493.681     
     41800  -3437827.8     -3437856.1      28.279093      527.1725      -5370.9119    
     41900  -3437827.8     -3437855.8      27.919118      520.46192     -4593.2101    
     42000  -3437827.8     -3437858.1      30.324029      565.29373     -1678.9555    
     42100  -3437827.7     -3437857.2      29.528536      550.46433     -5912.3865    
     42200  -3437827.5     -3437855.4      27.880753      519.74673     -2849.4843    
     42300  -3437827.3     -3437856.7      29.463015      549.2429      -6361.7018    
     42400  -3437826.9     -3437855.8      28.90364       538.81515     -6920.9181    
     42500  -3437826.5     -3437855.4      28.967251      540.00098     -3141.2437    
     42600  -3437826       -3437854.6      28.596453      533.08865     -6309.0506    
     42700  -3437825.6     -3437854.8      29.290316      546.02348     -6505.5777    
     42800  -3437825.1     -3437855        29.878199      556.98267     -4641.83      
     42900  -3437824.6     -3437853.4      28.748121      535.91601     -1919.9317    
     43000  -3437824.2     -3437854.1      29.93447       558.03165     -5418.0333    
     43100  -3437823.8     -3437855.1      31.259957      582.7411      -6215.7964    
     43200  -3437823.5     -3437854.2      30.737236      572.99665     -1255.243     
     43300  -3437823.2     -3437854.3      31.108918      579.92545     -4744.1071    
     43400  -3437822.9     -3437853.1      30.215154      563.26411     -5193.0442    
     43500  -3437822.7     -3437853.9      31.194198      581.51522     -4588.8763    
     43600  -3437822.6     -3437850.8      28.19408       525.58769     -6493.9926    
     43700  -3437822.5     -3437853.4      30.965986      577.26094     -2955.4397    
     43800  -3437822.4     -3437853.6      31.138201      580.47134     -4896.4741    
     43900  -3437822.5     -3437853.5      30.97764       577.4782      -5632.8006    
     44000  -3437822.6     -3437854.4      31.776113      592.36316     -7012.1857    
     44100  -3437822.8     -3437854.8      32.039847      597.27962     -2500.6436    
     44200  -3437823.1     -3437855.1      32.032532      597.14325     -3087.464     
     44300  -3437823.4     -3437853.6      30.23585       563.64991     -6474.8249    
     44400  -3437823.7     -3437853.7      30.000302      559.25889     -4921.8442    
     44500  -3437824.1     -3437854        29.858922      556.62332     -4833.7207    
     44600  -3437824.6     -3437854.3      29.776295      555.08299     -3101.1781    
     44700  -3437825       -3437854.2      29.28636       545.94975     -3778.1226    
     44800  -3437825.3     -3437854.3      28.958744      539.8424      -4416.5211    
     44900  -3437825.7     -3437855.4      29.731345      554.24505     -3741.1653    
     45000  -3437825.9     -3437855.3      29.388142      547.84714     -6065.7331    
     45100  -3437826.1     -3437856.2      30.110761      561.31803     -5735.2164    
     45200  -3437826.3     -3437854.4      28.166308      525.06998     -646.45755    
     45300  -3437826.4     -3437855.3      28.928873      539.28555     -5300.0697    
     45400  -3437826.4     -3437856.2      29.814749      555.79984     -3330.749     
     45500  -3437826.3     -3437855.8      29.453871      549.07244     -2054.1514    
     45600  -3437826.2     -3437856.3      30.149718      562.04427     -2248.2085    
     45700  -3437825.8     -3437856.7      30.826234      574.65572     -3753.4449    
     45800  -3437825.3     -3437855        29.705503      553.76331     -2620.3279    
     45900  -3437824.6     -3437854.9      30.349985      565.77759     -6318.1985    
     46000  -3437823.7     -3437854.5      30.787733      573.938       -3051.1497    
     46100  -3437823       -3437852.9      29.915802      557.68364     -3261.7744    
     46200  -3437822.4     -3437853.3      30.972458      577.3816      -1389.6599    
     46300  -3437822       -3437854.4      32.434346      604.63378     -1443.6421    
     46400  -3437821.7     -3437853.7      31.906491      594.79364     -7015.5737    
     46500  -3437821.6     -3437853.3      31.655079      590.10686     -5545.6451    
     46600  -3437821.5     -3437852.4      30.880725      575.67153     -1663.5472    
     46700  -3437821.5     -3437853.5      32.013744      596.79302     -5985.4863    
     46800  -3437821.6     -3437854.7      33.090261      616.8612       269.5953     
     46900  -3437821.7     -3437854.5      32.87562       612.85991     -4324.4172    
     47000  -3437821.8     -3437854.4      32.55033       606.79594     -8423.6756    
     47100  -3437822       -3437852.8      30.803037      574.22329     -3900.7119    
     47200  -3437822.1     -3437854.5      32.426816      604.49341     -4317.4478    
     47300  -3437822.3     -3437851.5      29.243554      545.15175     -4767.5861    
     47400  -3437822.4     -3437855        32.582304      607.39198     -1668.6247    
     47500  -3437822.6     -3437852.8      30.208882      563.14718     -3460.7404    
     47600  -3437822.8     -3437853.4      30.617067      570.75648     -4832.6004    
     47700  -3437822.9     -3437852.1      29.153205      543.46749     -2277.0672    
     47800  -3437823.1     -3437852.4      29.330129      546.76567     -3453.4583    
     47900  -3437823.3     -3437854.6      31.299391      583.4762      -4189.6981    
     48000  -3437823.4     -3437854.6      31.150261      580.69616     -5892.8819    
     48100  -3437823.5     -3437854.9      31.347416      584.37148     -472.00545    
     48200  -3437823.5     -3437853.6      30.086081      560.85795     -4542.0107    
     48300  -3437823.5     -3437853.6      30.095167      561.02733     -5402.7944    
     48400  -3437823.3     -3437853.3      29.940675      558.14734     -2868.045     
     48500  -3437823       -3437854.2      31.173425      581.12798     -8591.4144    
     48600  -3437822.6     -3437853.3      30.641163      571.20567     -5172.9239    
     48700  -3437822.1     -3437852.6      30.491237      568.41078     -1683.1408    
     48800  -3437821.5     -3437852.5      31.014115      578.15816     -5263.6608    
     48900  -3437820.8     -3437852        31.160018      580.87805     -4974.5138    
     49000  -3437820.2     -3437854.1      33.829665      630.645       -3162.3512    
     49100  -3437819.8     -3437853.1      33.356104      621.81699     -4788.4681    
     49200  -3437819.5     -3437851.7      32.222403      600.68278     -1698.6007    
     49300  -3437819.3     -3437851.1      31.789026      592.60388     -5010.6887    
     49400  -3437819.2     -3437852.3      33.099626      617.03579     -4742.1455    
     49500  -3437819.2     -3437852.5      33.331709      621.36223     -2788.5943    
     49600  -3437819.2     -3437852.5      33.24961       619.83174     -5378.4301    
     49700  -3437819.3     -3437852.6      33.305583      620.8752      -4132.1405    
     49800  -3437819.5     -3437852        32.487504      605.62474     -3729.7979    
     49900  -3437819.7     -3437853.3      33.599726      626.35854     -2783.1099    
     50000  -3437820       -3437852.2      32.191946      600.11502     -4485.9286    
Loop time of 4330.87 on 72 procs for 50000 steps with 416 atoms

Performance: 1.995 ns/day, 12.030 hours/ns, 11.545 timesteps/s, 4.803 katom-step/s
92.3% CPU use with 72 MPI tasks x 1 OpenMP threads

MPI task timing breakdown:
Section |  min time  |  avg time  |  max time  |%varavg| %total
---------------------------------------------------------------
Pair    | 2425.2     | 3252.7     | 3784       | 567.6 | 75.10
Bond    | 0.023408   | 0.033829   | 0.055656   |   3.5 |  0.00
Neigh   | 0.065564   | 0.080792   | 0.096259   |   2.5 |  0.00
Comm    | 545.21     | 1076.6     | 1904       | 986.6 | 24.86
Output  | 0.066146   | 0.066739   | 0.07542    |   0.4 |  0.00
Modify  | 0.96179    | 1.0103     | 1.1846     |   4.0 |  0.02
Other   |            | 0.4322     |            |       |  0.01

Nlocal:        5.77778 ave          10 max           3 min
Histogram: 6 9 14 0 20 15 0 6 1 1
Nghost:         372.25 ave         385 max         358 min
Histogram: 2 6 2 11 8 18 11 4 7 3
Neighs:              0 ave           0 max           0 min
Histogram: 72 0 0 0 0 0 0 0 0 0
FullNghs:      472.556 ave         805 max         242 min
Histogram: 6 9 9 5 20 10 5 6 0 2

Total # of neighbors = 34024
Ave neighs/atom = 81.788462
Ave special neighs/atom = 0
Neighbor list builds = 2226
Dangerous builds = 0
unfix therm_equ

fix therm_equ2 all nvt temp 600 300 1.0
run 100000
Per MPI rank memory allocation (min/avg/max) = 8.049 | 8.051 | 8.053 Mbytes
   Step         TotEng         PotEng         KinEng          Temp          Press     
     50000  -3437820       -3437852.2      32.191946      600.11502     -4485.9286    
     50100  -3437820       -3437853.4      33.433589      623.26145     -3372.2651    
     50200  -3437820       -3437852.7      32.685469      609.31516     -5229.6482    
     50300  -3437820.1     -3437852.3      32.202888      600.319       -4174.406     
     50400  -3437820.3     -3437852.5      32.214367      600.53299     -4477.1279    
     50500  -3437820.4     -3437852        31.630451      589.64775     -4611.7946    
     50600  -3437820.6     -3437852.7      32.137161      599.09373     -1345.7793    
     50700  -3437820.8     -3437854.1      33.37689       622.20448     -5499.2268    
     50800  -3437821.1     -3437853.4      32.292977      601.99842     -2935.5117    
     50900  -3437821.5     -3437854.9      33.401305      622.65962     -3618.3541    
     51000  -3437822.1     -3437853.6      31.521183      587.61081     -9637.0249    
     51100  -3437822.8     -3437852.3      29.502106      549.97163     -1459.5554    
     51200  -3437823.4     -3437854.4      30.997888      577.85565     -5400.9316    
     51300  -3437823.9     -3437854.2      30.222689      563.40456     -4907.6613    
     51400  -3437824.3     -3437856.3      31.939292      595.4051      -3642.7398    
     51500  -3437824.6     -3437855.1      30.4941        568.46415     -5725.6825    
     51600  -3437824.7     -3437854.8      30.023475      559.69086     -7220.1543    
     51700  -3437824.7     -3437854.8      30.110586      561.31477     -4068.1216    
     51800  -3437824.5     -3437855.3      30.798396      574.13678     -4372.4352    
     51900  -3437824.2     -3437854.5      30.298537      564.81851     -5327.9182    
     52000  -3437823.8     -3437854.7      30.930292      576.59555     -3482.8532    
     52100  -3437823.2     -3437854.5      31.33271       584.09734     -2178.9134    
     52200  -3437822.5     -3437854.8      32.264338      601.46454     -2189.5961    
     52300  -3437821.9     -3437853.6      31.640567      589.83634     -5064.9642    
     52400  -3437821.5     -3437853.5      32.023091      596.96725     -1780.9242    
     52500  -3437821.2     -3437852.6      31.395288      585.2639      -3528.9978    
     52600  -3437821       -3437853        32.008662      596.69828     -6614.4692    
     52700  -3437820.9     -3437851.3      30.41532       566.99556     -2358.9778    
     52800  -3437820.7     -3437852.2      31.492191      587.07035     -3129.0139    
     52900  -3437820.6     -3437853.2      32.628169      608.24699     -1561.3564    
     53000  -3437820.4     -3437850.7      30.323948      565.29223     -5756.5132    
     53100  -3437820.3     -3437850.7      30.401406      566.73617     -6640.9944    
     53200  -3437820.1     -3437853.3      33.209926      619.09197     -4983.2167    
     53300  -3437820       -3437851.9      31.93476       595.32061     -7246.6197    
     53400  -3437819.8     -3437852.5      32.617458      608.04732     -1712.3754    
     53500  -3437819.8     -3437850.8      31.07396       579.27378     -3563.8674    
     53600  -3437819.7     -3437850.9      31.194429      581.51954     -5891.3272    
     53700  -3437819.7     -3437853.4      33.623255      626.79717     -3619.9619    
     53800  -3437819.9     -3437852.3      32.439556      604.73092     -6722.2078    
     53900  -3437820       -3437851.6      31.541966      587.99823     -5944.6428    
     54000  -3437820.3     -3437851.5      31.169513      581.05505     -6576.8021    
     54100  -3437820.6     -3437851.4      30.746634      573.17184     -7935.7786    
     54200  -3437821       -3437853.5      32.466856      605.23983     -6530.518     
     54300  -3437821.6     -3437853.6      32.043424      597.3463      -4188.68      
     54400  -3437822.2     -3437852.6      30.411372      566.92195     -6489.8542    
     54500  -3437822.8     -3437852.4      29.577188      551.37129     -4026.8972    
     54600  -3437823.3     -3437854        30.688874      572.09509     -7948.3025    
     54700  -3437823.7     -3437853.6      29.913241      557.63592     -6976.6138    
     54800  -3437824       -3437853.4      29.366466      547.44305     -5856.9117    
     54900  -3437824.2     -3437854.9      30.626055      570.92404     -4739.4665    
     55000  -3437824.4     -3437853.2      28.787981      536.65907     -5445.7219    
     55100  -3437824.4     -3437855.7      31.213958      581.88359     -4419.9707    
     55200  -3437824.4     -3437853.3      28.878856      538.35315     -7363.5413    
     55300  -3437824.2     -3437855.9      31.707544      591.08491     -5849.4658    
     55400  -3437823.9     -3437856.7      32.77089       610.90757     -3339.7021    
     55500  -3437823.5     -3437854.2      30.69462       572.20221     -6162.2932    
     55600  -3437823       -3437852.8      29.78075       555.16604     -3177.0587    
     55700  -3437822.2     -3437853.4      31.227966      582.14472     -6412.9846    
     55800  -3437821.4     -3437851.9      30.55129       569.53028     -5170.5691    
     55900  -3437820.5     -3437852.9      32.431237      604.57583     -5417.1148    
     56000  -3437819.9     -3437852.8      32.937921      614.02132     -4858.515     
     56100  -3437819.5     -3437850.9      31.323007      583.91645     -2987.3286    
     56200  -3437819.4     -3437851.9      32.423544      604.43242     -4430.4457    
     56300  -3437819.5     -3437852.5      33.055814      616.21906     -3960.3894    
     56400  -3437819.6     -3437852        32.410005      604.18003     -3979.9759    
     56500  -3437819.8     -3437851.3      31.564399      588.41642     -6240.791     
     56600  -3437820       -3437853.1      33.069196      616.46851     -2563.7576    
     56700  -3437820.3     -3437851.3      30.990696      577.72158     -3554.7425    
     56800  -3437820.6     -3437851.7      31.116836      580.07306     -4952.592     
     56900  -3437820.9     -3437851.7      30.870303      575.47725     -2743.0455    
     57000  -3437821.2     -3437852.1      30.960419      577.15718     -4198.0794    
     57100  -3437821.6     -3437855        33.448082      623.53162     -3376.6428    
     57200  -3437822       -3437852.8      30.832546      574.77338     -3991.13      
     57300  -3437822.4     -3437853.1      30.755593      573.33884     -7235.2854    
     57400  -3437822.7     -3437854.4      31.689814      590.75439     -6457.6991    
     57500  -3437823       -3437854.6      31.584324      588.78786     -7862.8959    
     57600  -3437823.3     -3437853.5      30.218493      563.32635     -6257.2898    
     57700  -3437823.5     -3437854.2      30.620461      570.81975     -2737.8113    
     57800  -3437823.7     -3437853.7      29.942668      558.18449     -5558.2047    
     57900  -3437823.8     -3437853.1      29.272653      545.69422     -6189.7062    
     58000  -3437823.8     -3437852.3      28.480682      530.93047     -4480.7549    
     58100  -3437823.8     -3437854.4      30.654861      571.46103     -5130.7627    
     58200  -3437823.6     -3437854        30.353841      565.84948     -4483.0309    
     58300  -3437823.3     -3437852.8      29.522387      550.3497      -3976.7901    
     58400  -3437822.7     -3437852.4      29.676245      553.21788     -6553.5079    
     58500  -3437821.9     -3437853.7      31.862474      593.97308     -5803.3736    
     58600  -3437820.8     -3437851.9      31.088198      579.5392      -3915.8984    
     58700  -3437820       -3437854.1      34.082837      635.36458     -6118.4188    
     58800  -3437819.4     -3437850.9      31.441812      586.13118     -2814.6551    
     58900  -3437819.1     -3437851.7      32.626491      608.2157      -4334.673     
     59000  -3437819       -3437850.9      31.867271      594.0625      -7528.4879    
     59100  -3437819.1     -3437852.3      33.189739      618.71565     -3801.8896    
     59200  -3437819.3     -3437852.8      33.497827      624.45897     -2359.3456    
     59300  -3437819.7     -3437852.8      33.143824      617.85971     -3708.7558    
     59400  -3437820.1     -3437852.8      32.675202      609.12377     -5663.8364    
     59500  -3437820.7     -3437852.9      32.250473      601.20607     -6611.4586    
     59600  -3437821.2     -3437852.5      31.257121      582.68821     -3627.5936    
     59700  -3437821.8     -3437853        31.244794      582.45843     -6382.1624    
     59800  -3437822.2     -3437852.7      30.464831      567.91853     -5242.076     
     59900  -3437822.6     -3437852.3      29.700183      553.66413     -1552.761     
     60000  -3437823       -3437854.7      31.709275      591.11717     -6329.1632    
     60100  -3437823.2     -3437851.7      28.524896      531.7547      -5752.3761    
     60200  -3437823.4     -3437855.2      31.763226      592.12291     -2720.5873    
     60300  -3437823.6     -3437854.2      30.615424      570.72584     -6969.664     
     60400  -3437823.8     -3437854.2      30.423775      567.15317     -4871.5829    
     60500  -3437823.9     -3437855.7      31.770458      592.25773     -6106.5509    
     60600  -3437824.1     -3437855.7      31.557112      588.28059     -2935.9076    
     60700  -3437824.3     -3437855.9      31.59134       588.91865     -6253.1691    
     60800  -3437824.4     -3437855.8      31.365289      584.70466     -8380.2379    
     60900  -3437824.6     -3437855.7      31.102697      579.80949     -7406.4278    
     61000  -3437824.7     -3437854.9      30.124298      561.57039     -4110.2662    
     61100  -3437824.9     -3437853.5      28.648898      534.06631     -5986.3815    
     61200  -3437825       -3437854.6      29.57647       551.3579      -6972.1876    
     61300  -3437825.2     -3437855.1      29.956916      558.45009     -5039.1779    
     61400  -3437825.4     -3437856.7      31.27884       583.09311     -7868.0173    
     61500  -3437825.7     -3437857.1      31.362398      584.65078     -3857.8683    
     61600  -3437826.1     -3437855        28.893651      538.62895     -2676.3454    
     61700  -3437826.6     -3437854.6      28.038079      522.67956     -7039.8186    
     61800  -3437827       -3437856.1      29.136841      543.16245     -4656.0808    
     61900  -3437827.4     -3437856.6      29.184154      544.04443     -5673.8102    
     62000  -3437827.7     -3437854.8      27.111513      505.40673     -4084.6795    
     62100  -3437827.8     -3437857.2      29.375217      547.6062      -6421.8073    
     62200  -3437827.9     -3437855.7      27.821611      518.64421     -3895.9775    
     62300  -3437827.8     -3437855.1      27.330932      509.49708     -6483.0652    
     62400  -3437827.5     -3437856.6      29.027594      541.12588     -2872.0141    
     62500  -3437827.1     -3437855.8      28.715937      535.31604     -3801.5485    
     62600  -3437826.5     -3437856.3      29.780874      555.16835     -6018.7232    
     62700  -3437825.9     -3437856.7      30.772404      573.65224     -4984.9478    
     62800  -3437825.3     -3437855.8      30.47235       568.0587      -446.29807    
     62900  -3437824.8     -3437854.6      29.743863      554.47841     -6674.3476    
     63000  -3437824.4     -3437854.4      29.924183      557.83988     -3148.0388    
     63100  -3437824.1     -3437854.6      30.451068      567.66196     -3457.3579    
     63200  -3437823.9     -3437854.2      30.262473      564.14622     -3936.4139    
     63300  -3437823.8     -3437854.5      30.758897      573.40044     -4304.3109    
     63400  -3437823.7     -3437854.6      30.892219      575.88579     -6817.6386    
     63500  -3437823.6     -3437855.3      31.662034      590.23652     -5564.9521    
     63600  -3437823.6     -3437854.4      30.73775       573.00622     -4344.0704    
     63700  -3437823.7     -3437854.5      30.863984      575.35945     -3521.2929    
     63800  -3437823.7     -3437854.7      31.005573      577.99892     -5434.8651    
     63900  -3437823.7     -3437854.1      30.312984      565.08783     -9304.8721    
     64000  -3437823.8     -3437854.2      30.377735      566.29491     -3472.453     
     64100  -3437824       -3437856.5      32.467594      605.25358     -8788.0177    
     64200  -3437824.3     -3437853.2      28.899057      538.72972     -4263.0816    
     64300  -3437824.7     -3437855.5      30.833126      574.78421     -5644.5747    
     64400  -3437825.2     -3437855.1      29.951504      558.34919     -7316.3642    
     64500  -3437825.8     -3437856.4      30.601631      570.46872     -5108.0596    
     64600  -3437826.5     -3437855.4      28.900213      538.75128     -6477.4458    
     64700  -3437827.1     -3437855.4      28.219137      526.0548      -9253.3482    
     64800  -3437827.7     -3437857        29.323454      546.64124     -7212.1556    
     64900  -3437828.1     -3437857.2      29.09999       542.47547     -6872.3971    
     65000  -3437828.4     -3437857.4      29.026306      541.10188     -6397.5321    
     65100  -3437828.5     -3437855.9      27.40495       510.87692     -5915.0208    
     65200  -3437828.5     -3437857.4      28.944587      539.57847     -3277.7981    
     65300  -3437828.4     -3437856.8      28.36252       528.72771     -5657.9698    
     65400  -3437828.3     -3437856.9      28.592147      533.00837     -10014.816    
     65500  -3437828.1     -3437857.3      29.154017      543.48264     -3002.2953    
     65600  -3437828       -3437857.1      29.178715      543.94304     -7521.7186    
     65700  -3437827.8     -3437858.7      30.923268      576.46462     -7044.3491    
     65800  -3437827.7     -3437856.1      28.406323      529.54428     -2891.5599    
     65900  -3437827.5     -3437856.3      28.77703       536.45493     -6324.8276    
     66000  -3437827.3     -3437856.7      29.387463      547.83447     -5865.4796    
     66100  -3437827.2     -3437856.8      29.662415      552.96007     -4276.9431    
     66200  -3437827       -3437855.9      28.854966      537.9078      -6700.8375    
     66300  -3437826.9     -3437857.2      30.357763      565.92258     -7067.4742    
     66400  -3437826.7     -3437856.4      29.639562      552.53406     -2793.4005    
     66500  -3437826.6     -3437855.8      29.174987      543.87354     -6650.7171    
     66600  -3437826.4     -3437854.8      28.380777      529.06805     -8835.6015    
     66700  -3437826.2     -3437856.1      29.876751      556.95567     -4974.2872    
     66800  -3437825.9     -3437856.6      30.68338       571.99267     -5152.5145    
     66900  -3437825.7     -3437855.5      29.789046      555.32069     -4449.6964    
     67000  -3437825.4     -3437855.5      30.126304      561.60778     -8451.4321    
     67100  -3437825.2     -3437856.2      31.025079      578.36254     -4760.1506    
     67200  -3437824.9     -3437855.7      30.809194      574.33807     -6544.3024    
     67300  -3437824.7     -3437855.8      31.134048      580.39392     -5773.0654    
     67400  -3437824.4     -3437855.1      30.671258      571.76669     -5745.2776    
     67500  -3437824.1     -3437855.6      31.429429      585.90034     -7185.5259    
     67600  -3437823.9     -3437854        30.086065      560.85766     -3956.69      
     67700  -3437823.7     -3437854.8      31.039384      578.62921     -3226.4671    
     67800  -3437823.6     -3437854.8      31.161239      580.90082     -4241.3844    
     67900  -3437823.7     -3437854.6      30.819471      574.52964     -5247.8468    
     68000  -3437824       -3437855.6      31.596943      589.02311     -6839.192     
     68100  -3437824.5     -3437855        30.474922      568.10664     -1513.263     
     68200  -3437825.2     -3437855.2      30.055017      560.27887     -4582.117     
     68300  -3437825.8     -3437856        30.170262      562.42724     -6222.0444    
     68400  -3437826.5     -3437856.4      29.912371      557.6197      -5997.528     
     68500  -3437827.1     -3437855.8      28.717204      535.33966     -7532.4176    
     68600  -3437827.5     -3437857.8      30.249083      563.8966      -4815.694     
     68700  -3437827.9     -3437855.8      27.87078       519.56081     -4337.3925    
     68800  -3437828.2     -3437857        28.787344      536.6472      -6412.4787    
     68900  -3437828.5     -3437857.6      29.187703      544.1106      -4984.1494    
     69000  -3437828.6     -3437857.3      28.646539      534.02235     -5224.3633    
     69100  -3437828.8     -3437858        29.214428      544.60879     -4547.2544    
     69200  -3437829       -3437857.1      28.089688      523.64165     -4904.4688    
     69300  -3437829.2     -3437859.4      30.276197      564.40206     -4673.7882    
     69400  -3437829.3     -3437858.3      29.021166      541.00604     -6558.1537    
     69500  -3437829.4     -3437859        29.552862      550.9178      -4528.1145    
     69600  -3437829.5     -3437858.3      28.820476      537.26483     -5072.718     
     69700  -3437829.5     -3437858        28.498833      531.26884     -4219.0077    
     69800  -3437829.4     -3437857.8      28.469047      530.71358     -4481.7871    
     69900  -3437829.2     -3437857.6      28.455673      530.46425     -5546.881     
     70000  -3437828.9     -3437857        28.130257      524.39793     -2470.3699    
     70100  -3437828.4     -3437856.3      27.921408      520.50461     -4780.7457    
     70200  -3437827.8     -3437856.2      28.491155      531.12571     -4419.3212    
     70300  -3437827       -3437856.6      29.542209      550.71922     -3841.8225    
     70400  -3437826.3     -3437856.2      29.928277      557.9162      -6823.9102    
     70500  -3437825.8     -3437854.7      28.960956      539.88362     -2449.1669    
     70600  -3437825.4     -3437856        30.569339      569.86674     -5429.3846    
     70700  -3437825.2     -3437854.8      29.603412      551.86015     -6872.7087    
     70800  -3437825.2     -3437857.4      32.268105      601.53475     -2060.5539    
     70900  -3437825.2     -3437855.4      30.18785       562.7551      -7408.8842    
     71000  -3437825.5     -3437855.1      29.676738      553.22708     -9030.572     
     71100  -3437825.8     -3437854.8      29.006326      540.72941     -2518.3665    
     71200  -3437826.1     -3437855.3      29.157784      543.55285     -4363.8877    
     71300  -3437826.4     -3437856.5      30.046921      560.12794     -4392.3481    
     71400  -3437826.8     -3437856.4      29.641985      552.57922     -6077.9163    
     71500  -3437827.2     -3437856.8      29.595998      551.72194     -6575.64      
     71600  -3437827.6     -3437856.6      29.05026       541.54842     -450.76268    
     71700  -3437827.9     -3437855.1      27.182241      506.72523     -6822.6947    
     71800  -3437828.3     -3437856.7      28.489085      531.08712     -5503.8282    
     71900  -3437828.5     -3437858.1      29.627873      552.31614     -4424.8799    
     72000  -3437828.6     -3437857.1      28.490763      531.11839     -4888.0338    
     72100  -3437828.8     -3437858.7      29.976149      558.80863     -6720.8994    
     72200  -3437828.9     -3437857.9      29.04604       541.46974     -5423.5947    
     72300  -3437829       -3437857.2      28.229797      526.25352     -3717.48      
     72400  -3437829.1     -3437856        26.846778      500.47159     -6069.7078    
     72500  -3437829.2     -3437856.8      27.557981      513.72968     -5783.7843    
     72600  -3437829.3     -3437856.9      27.678206      515.97088     -4309.7334    
     72700  -3437829.3     -3437857.8      28.57323       532.65573     -7055.1291    
     72800  -3437829.3     -3437858.2      28.967347      540.00276     -2923.4372    
     72900  -3437829.2     -3437858.9      29.725245      554.13134     -5354.6334    
     73000  -3437829.1     -3437858.5      29.461338      549.21163     -6438.7491    
     73100  -3437828.9     -3437858        29.106073      542.58887     -5400.6282    
     73200  -3437828.8     -3437855.8      27.000307      503.33365     -4964.4156    
     73300  -3437828.5     -3437856        27.439798      511.52654     -6068.3474    
     73400  -3437828.1     -3437856.6      28.453039      530.41516     -7351.9268    
     73500  -3437827.7     -3437856.9      29.292805      546.06989     -4066.0881    
     73600  -3437827.1     -3437855.2      28.080891      523.47766     -4865.1689    
     73700  -3437826.5     -3437854.3      27.819393      518.60288     -7289.2653    
     73800  -3437825.9     -3437855.5      29.595734      551.71702     -3160.595     
     73900  -3437825.5     -3437855        29.471714      549.40507     -8419.1704    
     74000  -3437825.2     -3437855.1      29.925634      557.86693     -5404.5839    
     74100  -3437825       -3437855.9      30.811129      574.37413     -3084.1408    
     74200  -3437825       -3437854.8      29.794439      555.42124     -4679.3105    
     74300  -3437825.1     -3437855.6      30.575257      569.97706     -5590.0181    
     74400  -3437825.3     -3437855.1      29.832891      556.13804     -2404.2893    
     74500  -3437825.7     -3437856.1      30.428544      567.24208     -4232.4202    
     74600  -3437826.2     -3437855.3      29.133777      543.10532     -5335.4386    
     74700  -3437826.8     -3437856.3      29.521754      550.33791     -5329.8829    
     74800  -3437827.5     -3437855.7      28.165859      525.06161     -3449.3748    
     74900  -3437828.1     -3437858.2      30.12271       561.54078     -4998.2447    
     75000  -3437828.5     -3437857.7      29.122014      542.88604     -6156.4024    
     75100  -3437828.9     -3437857.6      28.70989       535.20331     -5599.6841    
     75200  -3437829.1     -3437857.5      28.427171      529.93293      148.91833    
     75300  -3437829.3     -3437857.5      28.204121      525.77487     -5237.1903    
     75400  -3437829.4     -3437858.1      28.607774      533.29969     -5332.0885    
     75500  -3437829.6     -3437857.8      28.227948      526.21906     -4006.7273    
     75600  -3437829.7     -3437855.5      25.777742      480.54287     -6877.1134    
     75700  -3437829.9     -3437857.8      27.94513       520.94682     -6669.3411    
     75800  -3437830       -3437858        28.023664      522.41084     -5196.6295    
     75900  -3437830.1     -3437857.7      27.664285      515.71138     -6971.4035    
     76000  -3437830.2     -3437859.1      28.87402       538.26299     -6257.7574    
     76100  -3437830.4     -3437860.5      30.082748      560.79582     -5690.7583    
     76200  -3437830.7     -3437860        29.358204      547.28903     -9022.1775    
     76300  -3437831       -3437859.3      28.240112      526.44581     -4777.2807    
     76400  -3437831.4     -3437858.4      27.019588      503.69309     -6650.2645    
     76500  -3437831.8     -3437858.3      26.465611      493.36597     -5099.7884    
     76600  -3437832.2     -3437860.7      28.442407      530.21695     -4245.1301    
     76700  -3437832.6     -3437860.5      27.870675      519.55886     -7380.7026    
     76800  -3437833       -3437859.5      26.523685      494.44856     -3611.8803    
     76900  -3437833.3     -3437860.7      27.420124      511.15978     -3465.2556    
     77000  -3437833.5     -3437859.7      26.201948      488.45082     -3875.4331    
     77100  -3437833.7     -3437860.3      26.641999      496.65416     -5597.6969    
     77200  -3437833.8     -3437861.4      27.639653      515.2522      -5143.5194    
     77300  -3437833.8     -3437861.3      27.556293      513.69821     -3833.0629    
     77400  -3437833.7     -3437859.5      25.789952      480.77048     -6992.8217    
     77500  -3437833.6     -3437859.9      26.349931      491.20949     -4946.4256    
     77600  -3437833.2     -3437860.8      27.527853      513.16805     -3557.4155    
     77700  -3437832.6     -3437859        26.359641      491.3905      -7868.2137    
     77800  -3437831.8     -3437859.9      28.085156      523.55716     -7011.0333    
     77900  -3437831       -3437858.3      27.259139      508.15875     -4188.4815    
     78000  -3437830.3     -3437858.8      28.444339      530.25297     -6834.76      
     78100  -3437829.9     -3437859.3      29.371135      547.53009     -3938.4981    
     78200  -3437829.6     -3437859.3      29.684515      553.37205     -3920.9093    
     78300  -3437829.4     -3437858        28.560962      532.42702     -5865.7562    
     78400  -3437829.4     -3437859.7      30.315673      565.13795     -4091.8995    
     78500  -3437829.5     -3437858.4      28.940165      539.49605     -4095.1984    
     78600  -3437829.6     -3437856.7      27.126982      505.69509     -4600.5294    
     78700  -3437829.8     -3437857.9      28.029155      522.51321     -6184.1709    
     78800  -3437830.2     -3437857        26.866693      500.84285     -4759.6256    
     78900  -3437830.5     -3437859.1      28.595601      533.07277     -6429.3487    
     79000  -3437831       -3437859.2      28.246591      526.56661     -5779.3734    
     79100  -3437831.4     -3437859.3      27.924903      520.56977     -5594.6491    
     79200  -3437831.9     -3437858.7      26.822044      500.01051     -6034.5067    
     79300  -3437832.3     -3437861        28.685872      534.75557     -6503.5278    
     79400  -3437832.7     -3437859.3      26.680362      497.3693      -3870.0288    
     79500  -3437832.9     -3437858.6      25.673044      478.5911      -7235.158     
     79600  -3437833.1     -3437859.9      26.861687      500.74952     -7020.0022    
     79700  -3437833.2     -3437858.7      25.534909      476.01604     -5129.7104    
     79800  -3437833.2     -3437859        25.801962      480.99437     -7670.2571    
     79900  -3437833.2     -3437860.5      27.306071      509.03363     -6346.4147    
     80000  -3437833.1     -3437858.2      25.134686      468.55517     -5790.3003    
     80100  -3437832.9     -3437860        27.048549      504.23297     -5570.5951    
     80200  -3437832.7     -3437859.1      26.351068      491.23068     -6838.0902    
     80300  -3437832.5     -3437860.3      27.760336      517.50193     -6172.5824    
     80400  -3437832.3     -3437858.9      26.561142      495.14683     -3082.3597    
     80500  -3437832.2     -3437858.8      26.625164      496.34032     -4923.4245    
     80600  -3437832       -3437857.9      25.946793      483.69428     -7609.9312    
     80700  -3437831.8     -3437860.4      28.597114      533.10097     -8032.9465    
     80800  -3437831.6     -3437858.5      26.893152      501.33609     -3635.0444    
     80900  -3437831.5     -3437858.5      26.986561      503.07739     -4565.0108    
     81000  -3437831.5     -3437859.3      27.871495      519.57415     -6323.6831    
     81100  -3437831.5     -3437858.7      27.218266      507.3968      -6298.5186    
     81200  -3437831.6     -3437859.3      27.784023      517.9435      -3404.7217    
     81300  -3437831.7     -3437859.1      27.329176      509.46436     -8128.4353    
     81400  -3437832.2     -3437858.3      26.160071      487.67015     -4845.4819    
     81500  -3437832.9     -3437860.6      27.661637      515.66202     -3232.9399    
     81600  -3437834       -3437860.5      26.556379      495.05805     -4386.3142    
     81700  -3437834.8     -3437860.9      26.102552      486.59791     -3938.2016    
     81800  -3437835.4     -3437862.1      26.753909      498.74035     -6345.9396    
     81900  -3437835.7     -3437862.7      26.993415      503.20517     -6887.119     
     82000  -3437835.9     -3437862        26.082615      486.22625     -3149.2231    
     82100  -3437836.1     -3437861.2      25.122166      468.32177     -5492.0124    
     82200  -3437836.1     -3437861.2      25.121451      468.30844     -6477.8549    
     82300  -3437836       -3437861.1      25.181211      469.42248     -4920.2173    
     82400  -3437835.8     -3437861.4      25.648612      478.13566     -5756.9243    
     82500  -3437835.4     -3437861.3      25.864341      482.15723     -7231.5945    
     82600  -3437835       -3437860.9      25.87214       482.30262     -5362.7245    
     82700  -3437834.6     -3437860.5      25.913547      483.07451     -7987.3195    
     82800  -3437834.1     -3437861.2      27.046707      504.19863     -5880.1089    
     82900  -3437833.7     -3437859.6      25.952101      483.79323     -4505.1412    
     83000  -3437833.3     -3437861        27.693785      516.26131     -7513.5442    
     83100  -3437832.9     -3437862.3      29.339639      546.94296     -3975.4884    
     83200  -3437832.7     -3437859.9      27.269431      508.3506      -4536.9393    
     83300  -3437832.5     -3437859.8      27.259795      508.17096     -5759.3076    
     83400  -3437832.3     -3437860.3      27.926565      520.60074     -5471.5615    
     83500  -3437832.3     -3437860.2      27.983919      521.66992     -4064.2197    
     83600  -3437832.2     -3437859.4      27.172664      506.54669     -6029.1677    
     83700  -3437832.3     -3437859.9      27.645742      515.36571     -4870.7961    
     83800  -3437832.4     -3437860.9      28.458399      530.51507     -3925.9155    
     83900  -3437832.7     -3437860.6      27.907874      520.2523      -6509.7022    
     84000  -3437833       -3437861.6      28.600138      533.15733     -4470.3689    
     84100  -3437833.4     -3437859.2      25.728555      479.62593     -6299.8107    
     84200  -3437834       -3437861        27.031332      503.91202     -4548.8168    
     84300  -3437834.5     -3437859.3      24.754416      461.46626     -5249.5163    
     84400  -3437835.1     -3437861.6      26.550525      494.94892     -6607.4125    
     84500  -3437835.5     -3437860.9      25.435229      474.15781     -6405.8214    
     84600  -3437835.8     -3437861.6      25.771169      480.42034     -4596.802     
     84700  -3437836       -3437860.8      24.815617      462.60715     -5267.6495    
     84800  -3437836.1     -3437863.4      27.276786      508.4877      -5481.5248    
     84900  -3437836.1     -3437862.2      26.100498      486.55961     -5664.3939    
     85000  -3437836       -3437861.6      25.593097      477.10076     -4160.5888    
     85100  -3437836       -3437861.8      25.792672      480.82119     -6844.7939    
     85200  -3437835.9     -3437862.4      26.523487      494.44488     -4658.9606    
     85300  -3437835.7     -3437860.9      25.177571      469.35461     -5861.8007    
     85400  -3437835.5     -3437862.8      27.281183      508.56968     -4136.7907    
     85500  -3437835.3     -3437861.4      26.099872      486.54794     -6479.1297    
     85600  -3437835.1     -3437860.4      25.258934      470.87136     -3302.5358    
     85700  -3437834.9     -3437861.4      26.476123      493.56192     -8049.2956    
     85800  -3437834.7     -3437860.5      25.796135      480.88575     -5334.2518    
     85900  -3437834.5     -3437859.5      24.944932      465.01781     -4491.7035    
     86000  -3437834.3     -3437860.9      26.576602      495.43504     -7010.9177    
     86100  -3437834       -3437862.1      28.050606      522.91308     -5824.9728    
     86200  -3437833.8     -3437860.4      26.548799      494.91675     -6197.5976    
     86300  -3437833.7     -3437859.7      26.024137      485.13611     -6597.0433    
     86400  -3437833.5     -3437860.7      27.154499      506.20806     -6886.7005    
     86500  -3437833.4     -3437860.2      26.74522       498.57838     -9175.4174    
     86600  -3437833.4     -3437858.9      25.524826      475.82807     -4284.4377    
[...]
    228800  -3437861.3     -3437876.7      15.352395      286.19589      493.7721     
    228900  -3437861.1     -3437877.4      16.283437      303.55216     -1403.6328    
    229000  -3437860.7     -3437876.3      15.550377      289.88662      1344.1826    
    229100  -3437860.3     -3437876.7      16.405684      305.83107     -1711.9092    
    229200  -3437859.9     -3437876.6      16.761126      312.45714      1539.2399    
    229300  -3437859.5     -3437876.2      16.737683      312.02013     -317.86078    
    229400  -3437859.3     -3437877.1      17.802365      331.86769      1238.2865    
    229500  -3437859.2     -3437876.6      17.431271      324.94983     -833.36656    
    229600  -3437859.1     -3437876        16.848638      314.08851      946.72812    
    229700  -3437859.2     -3437875.9      16.690183      311.13463      943.43426    
    229800  -3437859.3     -3437876        16.72086       311.70651     -2237.1415    
    229900  -3437859.5     -3437875.8      16.316384      304.16637      2678.5293    
    230000  -3437859.6     -3437876.3      16.64015       310.20193     -1839.1502    
    230100  -3437859.8     -3437876.5      16.693754      311.20121      2035.3712    
    230200  -3437860       -3437875.9      15.853         295.52806     -1294.2183    
    230300  -3437860.2     -3437876.2      15.985943      298.00635     -246.40469    
    230400  -3437860.4     -3437877.1      16.704117      311.3944      -1269.4438    
    230500  -3437860.6     -3437877.3      16.627214      309.96078      252.76047    
    230600  -3437860.8     -3437876.9      16.062343      299.43059     -932.09765    
    230700  -3437861       -3437876.6      15.611162      291.01976      381.97738    
    230800  -3437861.1     -3437877.3      16.125205      300.60244      1415.5278    
    230900  -3437861.3     -3437876.5      15.193832      283.24        -1397.1646    
    231000  -3437861.4     -3437877.2      15.845433      295.38699     -835.29103    
    231100  -3437861.4     -3437877.5      16.097519      300.08633      972.61556    
    231200  -3437861.5     -3437877.8      16.30718       303.99477     -409.39672    
    231300  -3437861.5     -3437877.5      15.947431      297.28843      51.322723    
    231400  -3437861.5     -3437877.3      15.793015      294.40984      188.19408    
    231500  -3437861.4     -3437877.6      16.166761      301.37712     -641.83995    
    231600  -3437861.4     -3437877.4      15.973005      297.76516      163.04037    
    231700  -3437861.3     -3437875.7      14.438479      269.15888      584.55339    
    231800  -3437861.1     -3437877.7      16.558081      308.67202      488.80123    
    231900  -3437860.9     -3437877.8      16.894234      314.93851      650.80399    
    232000  -3437860.4     -3437876.4      15.987216      298.03008     -1770.767     
    232100  -3437860       -3437876.7      16.669975      310.75792      410.38308    
    232200  -3437859.5     -3437876        16.483427      307.28033      3659.2706    
    232300  -3437859.3     -3437875.6      16.303502      303.92622     -2378.7716    
    232400  -3437859       -3437875.5      16.469111      307.01346      2691.0444    
    232500  -3437858.9     -3437875.6      16.672642      310.80764     -1461.0554    
    232600  -3437858.9     -3437875.6      16.65891       310.55166      1693.0419    
    232700  -3437859       -3437875.2      16.225819      302.47807     -2919.6443    
    232800  -3437859.1     -3437876.8      17.69994       329.9583       819.49982    
    232900  -3437859.2     -3437875.8      16.569915      308.89262      1282.8273    
    233000  -3437859.4     -3437875.6      16.203976      302.07088      871.77554    
    233100  -3437859.7     -3437876.4      16.751799      312.28328     -157.37349    
    233200  -3437860       -3437875.6      15.619394      291.17323     -1686.9549    
    233300  -3437860.2     -3437876.9      16.677916      310.90596      1107.4576    
    233400  -3437860.5     -3437876.5      16.052436      299.2459      -1197.2682    
    233500  -3437860.7     -3437877.5      16.817616      313.51021      214.984      
    233600  -3437860.8     -3437877.2      16.37762       305.3079       646.6121     
    233700  -3437860.9     -3437876.9      15.997567      298.22306      1355.3966    
    233800  -3437861       -3437877.7      16.71857       311.66382     -2473.6247    
    233900  -3437861.1     -3437877.3      16.198036      301.96014      203.69543    
    234000  -3437861.1     -3437876.9      15.838243      295.25296      876.59022    
    234100  -3437861.1     -3437877.1      16.013047      298.51162      1783.3207    
    234200  -3437861.1     -3437876.7      15.559099      290.04922     -1106.3234    
    234300  -3437861.1     -3437877.7      16.600938      309.47095     -3029.7646    
    234400  -3437861       -3437877.1      16.091161      299.9678       2632.9647    
    234500  -3437860.9     -3437876.6      15.618887      291.16379     -1614.9109    
    234600  -3437860.9     -3437876.9      16.04031       299.01984      933.3356     
    234700  -3437860.8     -3437877.3      16.561004      308.72651      120.10281    
    234800  -3437860.7     -3437876.3      15.60742       290.95001      1629.3027    
    234900  -3437860.6     -3437877        16.426086      306.21141     -394.62583    
    235000  -3437860.5     -3437877        16.487343      307.35334     -700.24849    
    235100  -3437860.4     -3437876.2      15.851112      295.49287      1371.6544    
    235200  -3437860.3     -3437876.3      16.00183       298.30251     -458.68347    
    235300  -3437860.1     -3437876.3      16.185786      301.73178      2280.5874    
    235400  -3437859.9     -3437876.1      16.207528      302.13709     -1808.3585    
    235500  -3437859.6     -3437876.2      16.611005      309.65863      3815.5338    
    235600  -3437859.3     -3437875.9      16.587141      309.21375     -515.64359    
    235700  -3437858.9     -3437875.2      16.286179      303.60328     -1296.7445    
    235800  -3437858.6     -3437874.8      16.18284       301.67687      978.59425    
    235900  -3437858.5     -3437875.3      16.872099      314.52587      1326.3558    
    236000  -3437858.4     -3437875.9      17.545235      327.07432      492.69505    
    236100  -3437858.4     -3437875.6      17.248865      321.54947     -243.25417    
    236200  -3437858.5     -3437876.4      17.845847      332.67826     -321.95131    
    236300  -3437858.8     -3437876.2      17.481049      325.87779     -339.74921    
    236400  -3437859.1     -3437876.3      17.237552      321.33857      1852.543     
    236500  -3437859.5     -3437875.4      15.937242      297.09848     -2030.6891    
    236600  -3437860       -3437875.8      15.86598       295.77003      1433.0727    
    236700  -3437860.2     -3437876.4      16.194076      301.88632      1067.7928    
    236800  -3437860.4     -3437876.4      16.035676      298.93347     -968.03646    
    236900  -3437860.6     -3437875.6      15.028842      280.1643       1366.9578    
    237000  -3437860.7     -3437877.2      16.482404      307.26126      1558.6683    
    237100  -3437860.9     -3437877.2      16.321629      304.26415     -1402.5975    
    237200  -3437861       -3437877        16.003491      298.33348     -381.82245    
    237300  -3437861       -3437876.7      15.635114      291.46628      260.39467    
    237400  -3437861.1     -3437877.1      16.001632      298.29883     -1763.228     
    237500  -3437861.1     -3437877.1      15.92374       296.84677      1774.085     
    237600  -3437861.2     -3437876.8      15.626438      291.30454     -1081.0516    
    237700  -3437861.2     -3437877.8      16.614889      309.73103      1558.0844    
    237800  -3437861.3     -3437876.4      15.144771      282.32542     -2152.3741    
    237900  -3437861.3     -3437876.8      15.525515      289.42316     -47.275155    
    238000  -3437861.3     -3437878        16.69063       311.14298      589.10289    
    238100  -3437861.3     -3437877.5      16.195439      301.91173     -1005.8803    
    238200  -3437861.3     -3437877.4      16.117985      300.46786      644.32398    
    238300  -3437861.2     -3437877.1      15.868943      295.82527     -108.41135    
    238400  -3437861.1     -3437876.3      15.174687      282.88311      1162.8054    
    238500  -3437860.9     -3437876.7      15.778314      294.13578     -1942.7905    
    238600  -3437860.7     -3437876.3      15.538174      289.65915      1565.7788    
    238700  -3437860.5     -3437877.2      16.72275       311.74175     -1072.0541    
    238800  -3437860.2     -3437877.1      16.858407      314.27062      439.05354    
    238900  -3437860       -3437876.5      16.530389      308.15579      25.755965    
    239000  -3437859.7     -3437875.5      15.734456      293.31819     -1110.1025    
    239100  -3437859.5     -3437877.2      17.701275      329.98319      402.21937    
    239200  -3437859.4     -3437876.4      17.024089      317.35923     -2495.122     
    239300  -3437859.3     -3437876.7      17.414858      324.64387      2426.1359    
    239400  -3437859.2     -3437876.6      17.389956      324.17965     -2649.0718    
    239500  -3437859.3     -3437875.7      16.42146       306.12517      1552.854     
    239600  -3437859.4     -3437876.7      17.31667       322.81347     -1513.1099    
    239700  -3437859.7     -3437876.6      16.867284      314.43611      1433.556     
    239800  -3437859.9     -3437876.1      16.173737      301.50717     -1519.2155    
    239900  -3437860.3     -3437877.3      16.968883      316.3301       1613.3685    
    240000  -3437860.7     -3437877.8      17.080744      318.41539     -718.88259    
    240100  -3437861.1     -3437877.6      16.484414      307.29875     -988.60661    
    240200  -3437861.4     -3437877.1      15.697474      292.62877      1090.2094    
    240300  -3437861.6     -3437877.6      16.013145      298.51344     -1221.1054    
    240400  -3437861.6     -3437877.4      15.821217      294.93557     -388.56933    
    240500  -3437861.7     -3437877.9      16.198888      301.97603      218.91284    
    240600  -3437861.6     -3437877.1      15.45662       288.13884     -997.18751    
    240700  -3437861.6     -3437876.7      15.0232        280.05912      198.7542     
    240800  -3437861.6     -3437877.3      15.656091      291.85733      2461.9023    
    240900  -3437861.5     -3437877.4      15.888036      296.18119     -1758.5892    
    241000  -3437861.4     -3437877.1      15.629295      291.35781      987.61375    
    241100  -3437861.3     -3437877.5      16.197985      301.95918      601.80215    
    241200  -3437861.2     -3437877        15.86524       295.75624     -3360.8233    
    241300  -3437861       -3437877.3      16.281491      303.51589      1885.3128    
    241400  -3437860.7     -3437877.3      16.557764      308.66611     -1358.6376    
    241500  -3437860.5     -3437876.9      16.345844      304.71555     -7.0902175    
    241600  -3437860.3     -3437877.8      17.456182      325.41421     -1910.7305    
    241700  -3437860.1     -3437876.4      16.293416      303.7382       2754.6396    
    241800  -3437860       -3437876.8      16.857898      314.26115     -681.41506    
    241900  -3437859.8     -3437875.9      16.092513      299.99302     -1699.9178    
    242000  -3437859.7     -3437876.7      16.977466      316.49011      1795.7668    
    242100  -3437859.7     -3437876.3      16.580971      309.09874     -1054.2469    
    242200  -3437859.7     -3437876.3      16.604876      309.54436      2282.2081    
    242300  -3437859.8     -3437876.7      16.901532      315.07456     -2606.633     
    242400  -3437859.9     -3437876.4      16.562754      308.75913      1454.7318    
    242500  -3437860.1     -3437876.6      16.452693      306.7074      -346.3683     
    242600  -3437860.5     -3437876.9      16.426205      306.21361      2342.7294    
    242700  -3437861       -3437876.8      15.752582      293.65608     -2128.9956    
    242800  -3437861.6     -3437877.3      15.706042      292.7885      -825.92096    
    242900  -3437862       -3437877.6      15.658087      291.89454      1424.5607    
    243000  -3437862.2     -3437877.7      15.552521      289.9266      -3225.4509    
    243100  -3437862.4     -3437878.4      16.044849      299.10446      1918.7887    
    243200  -3437862.4     -3437878.1      15.770045      293.98163     -737.73506    
    243300  -3437862.3     -3437877.9      15.606563      290.93405      996.34761    
    243400  -3437862.3     -3437877.5      15.217961      283.68981      365.66058    
    243500  -3437862.1     -3437877.8      15.669225      292.10217     -380.43938    
    243600  -3437861.9     -3437877.9      16.005637      298.37349      1414.2589    
    243700  -3437861.7     -3437877.8      16.034016      298.90251     -9.4853039    
    243800  -3437861.5     -3437876.9      15.418827      287.43431      82.953093    
    243900  -3437861.2     -3437877.3      16.043756      299.0841      -783.89557    
    244000  -3437861       -3437876.6      15.638361      291.52682      1289.4993    
    244100  -3437860.7     -3437876.9      16.129009      300.67335      905.90268    
    244200  -3437860.5     -3437876.4      15.888399      296.18797      539.6415     
    244300  -3437860.4     -3437876.4      15.994146      298.15927     -1685.6587    
    244400  -3437860.3     -3437876        15.725903      293.15874     -867.09542    
    244500  -3437860.2     -3437876.9      16.713952      311.57773      4.341421     
    244600  -3437860.1     -3437876.7      16.57426       308.97362      694.1105     
    244700  -3437860.1     -3437875.9      15.764808      293.884       -577.78719    
    244800  -3437860.1     -3437876.2      16.075022      299.66694     -950.33289    
    244900  -3437860       -3437876.6      16.569328      308.88168      2114.3544    
    245000  -3437860.1     -3437874.9      14.876423      277.32292     -2782.5672    
    245100  -3437860.1     -3437876.7      16.599389      309.44208      722.75128    
    245200  -3437860.2     -3437876.3      16.10799       300.28153      1877.6764    
    245300  -3437860.3     -3437876.6      16.317688      304.19067     -2254.0073    
    245400  -3437860.6     -3437877        16.361676      305.01068     -491.422      
    245500  -3437860.9     -3437877.2      16.284983      303.58099      980.16983    
    245600  -3437861.3     -3437877.3      15.937036      297.09463     -731.38935    
    245700  -3437861.8     -3437877.5      15.706592      292.79876      1923.1318    
    245800  -3437862.2     -3437877.7      15.512672      289.18375      181.58879    
    245900  -3437862.4     -3437877.7      15.297142      285.16587     -2480.8156    
    246000  -3437862.6     -3437877.7      15.141871      282.27136      1747.1805    
    246100  -3437862.6     -3437877.5      14.854613      276.91636      735.42453    
    246200  -3437862.6     -3437878.1      15.478865      288.55351     -237.85565    
    246300  -3437862.5     -3437877.9      15.447536      287.96949     -965.35965    
    246400  -3437862.3     -3437878.3      15.939154      297.13412      1081.2066    
    246500  -3437862.1     -3437877.5      15.375961      286.63521     -1401.6267    
    246600  -3437862       -3437877.8      15.884614      296.11741     -900.46726    
    246700  -3437861.7     -3437877.9      16.179024      301.60572      2334.9168    
    246800  -3437861.4     -3437876.7      15.266718      284.59873     -2221.0101    
    246900  -3437861.2     -3437877.1      15.929891      296.96144     -1126.717     
    247000  -3437861       -3437876.9      15.897421      296.35615     -628.95804    
    247100  -3437860.8     -3437876.6      15.747232      293.55635     -901.45565    
    247200  -3437860.7     -3437877.3      16.580485      309.08967     -580.48831    
    247300  -3437860.6     -3437877.2      16.62552       309.92921      313.19542    
    247400  -3437860.5     -3437877.2      16.74444       312.14609      513.56873    
    247500  -3437860.5     -3437876.7      16.229583      302.54824      254.98287    
    247600  -3437860.4     -3437876.7      16.288198      303.64092     -1616.1866    
    247700  -3437860.4     -3437876.9      16.50073       307.6029       1781.4959    
    247800  -3437860.4     -3437876.9      16.530939      308.16605     -1474.0975    
    247900  -3437860.4     -3437877        16.627179      309.96014      328.31651    
    248000  -3437860.4     -3437877        16.582807      309.13296      222.97591    
    248100  -3437860.4     -3437875.6      15.204712      283.44283      705.20254    
    248200  -3437860.5     -3437877.3      16.847847      314.07377     -781.64834    
    248300  -3437860.5     -3437876.7      16.152442      301.1102       1664.3257    
    248400  -3437860.6     -3437877.7      17.138644      319.49474     -613.21923    
    248500  -3437860.7     -3437876.4      15.742436      293.46695      752.1515     
    248600  -3437860.8     -3437876.9      16.094081      300.02224      358.77807    
    248700  -3437861       -3437876.7      15.682376      292.34734     -242.13001    
    248800  -3437861.2     -3437877.1      15.919425      296.76633      1900.9093    
    248900  -3437861.5     -3437877.1      15.634597      291.45664      567.88393    
    249000  -3437861.7     -3437876.9      15.198512      283.32724     -18.751919    
    249100  -3437861.9     -3437878        16.114687      300.40638      73.476182    
    249200  -3437862.1     -3437878.6      16.528124      308.11357      1470.268     
    249300  -3437862.2     -3437877.5      15.2683        284.62821     -681.93642    
    249400  -3437862.3     -3437877.2      14.954044      278.76993     -1480.0036    
    249500  -3437862.3     -3437877.7      15.459836      288.1988       492.06       
    249600  -3437862.3     -3437877.5      15.200095      283.35675     -791.61348    
    249700  -3437862.2     -3437877.2      15.008115      279.7779       2340.4757    
    249800  -3437862       -3437876.8      14.800654      275.91046     -2339.1441    
    249900  -3437861.8     -3437877.6      15.847876      295.43253      2068.4537    
    250000  -3437861.5     -3437876.8      15.371632      286.55451     -1121.7118    
Loop time of 4316.19 on 72 procs for 50000 steps with 416 atoms

Performance: 2.002 ns/day, 11.989 hours/ns, 11.584 timesteps/s, 4.819 katom-step/s
93.5% CPU use with 72 MPI tasks x 1 OpenMP threads

MPI task timing breakdown:
Section |  min time  |  avg time  |  max time  |%varavg| %total
---------------------------------------------------------------
Pair    | 2295.3     | 3340.1     | 3987.9     | 669.3 | 77.38
Bond    | 0.020874   | 0.034264   | 0.055137   |   4.0 |  0.00
Neigh   | 0.039294   | 0.054565   | 0.066254   |   2.5 |  0.00
Comm    | 325.85     | 973.74     | 2018.5     |1239.6 | 22.56
Output  | 0.044555   | 0.04522    | 0.053028   |   0.4 |  0.00
Modify  | 1.7896     | 1.8411     | 1.9197     |   1.9 |  0.04
Other   |            | 0.3964     |            |       |  0.01

Nlocal:        5.77778 ave           8 max           3 min
Histogram: 3 0 10 0 13 0 26 0 14 6
Nghost:        396.431 ave         406 max         387 min
Histogram: 3 5 8 13 6 16 4 8 4 5
Neighs:              0 ave           0 max           0 min
Histogram: 72 0 0 0 0 0 0 0 0 0
FullNghs:      509.472 ave         724 max         256 min
Histogram: 3 3 7 8 5 20 6 13 1 6

Total # of neighbors = 36682
Ave neighs/atom = 88.177885
Ave special neighs/atom = 0
Neighbor list builds = 1569
Dangerous builds = 0
unfix npt_equ


write_restart restart.equil
System init for write_restart ...
quit
