160
Lattice="15.659932 0.0 0.0 0.004977 13.389538 0.0 0.013941 0.080597 18.122722" Properties=species:S:1:pos:R:3:forces:R:3 energy=-1484255.185026329 pbc="T T T"
P        9.24622500       4.17503700       5.19712800      -1.15884129      -0.47034707      -0.15049827
P        0.32307700       5.66765400      10.14232800       0.37763912       0.48538867      -0.27468359
S       13.52794100       4.53144200      12.10600200      -0.60365124       0.40956974      -0.07735003
S        8.05015600       4.35844400       6.82864600       0.04690982      -0.26722555       0.33811904
S        0.17135700       7.26076800      11.45806000       0.06748671      -1.27420248      -0.84972606
S       15.01037100       3.87003800      10.81652200      -0.39053738      -0.07520422      -0.13705984
S        8.47591800       8.70822700       9.27382600      -0.18919765      -0.13467258       0.24682182
S        0.34539600       5.77710800       8.14413500      -0.10511113       0.03805206       0.60272835
P        1.05391800       8.73137100      17.70209700      -1.70948711      -1.23720461       0.92609964
P        4.14191600      10.21284400      12.76072100       1.22730042       0.07076840      -0.43767970
S        4.46259500      11.35395600       2.30824200      -0.42437745      -0.29335488      -0.18647408
S        3.39726200       5.59546200      15.37285500       0.25300288      -0.47247369       0.91415467
S        2.02421300      10.11824500      12.36577300      -0.13436352      -0.35616884       0.09756752
S        4.86405400       8.62798000      14.19142400       0.00209616      -0.71798305      -1.48362191
S        0.49478000       6.88999400       0.61302800       0.29867012       1.61297662      -1.07483008
S        5.43242200      10.33721200      11.18237100      -0.53096396       0.03557713       1.14521060
P       15.58515800      10.33877700       7.08182700      -0.82549840       0.40779396      -0.14909087
P       12.86886900       8.89185200       7.67307300      -1.07447647       1.87135143       0.06844506
S       10.99575400       1.49611100       5.72874300      -0.39103938       0.07478538       0.05289442
S        0.70821300      12.92735900       8.15144700      -0.99133889       0.03485699      -0.04209255
S       14.33580300       8.64853300       6.25589500       0.03033083      -0.50146766      -1.15910886
S       13.84077200      10.78241700       8.38614400      -0.28580726      -0.50160019      -0.04542678
S        1.08878600       9.17718500       8.23028000       1.05911383      -0.17790659       0.84448655
S       12.76297900       7.37142200       8.92913100      -0.17082830      -0.04688566       0.43708932
P        4.64802800       2.51391100       9.39871900       0.69787684       1.16314690       0.14213835
P        2.37044300       4.84058000      10.73416000       0.49488060       0.03026987       0.40460239
S        2.34771500       4.79514900      12.79846500       0.41600447       0.49877235      -1.19511393
S        4.79362700       3.15933000       7.51799500      -0.36188199      -0.35665837       0.62930338
S        2.69593300       2.55125400      10.19265100      -0.21694004       0.60834164       0.01361387
S        6.03316300       3.37961900      10.71461700      -0.66869674      -0.30548413      -0.24762269
S        5.11342500       0.40315600       9.58337000       0.18114307      -0.65976485      -0.47676267
S        3.60615600       6.07002900       9.69675100      -1.06709845      -0.23877347       0.41403690
P       12.59025100       0.37439000      14.66618000       1.45517860      -0.88025704      -0.47634255
P       12.93677200      11.59534000      14.28134700      -0.31680264      -0.45190525      -0.02824030
S        2.13642300      12.15595700      14.85748000      -0.85907125      -0.02255907       0.05740303
S       11.16585100       0.35296000      16.00063300       0.08659134       0.27784525       0.71258143
S       12.69285900       1.53388100      13.11830100      -0.82986210       1.03281722      -1.06172395
S        0.59487100      10.33775700       4.16123200      -0.11671240      -0.67929130      -0.46390807
S       14.86416300       0.55639600      17.37180000       0.50715194      -0.14589029      -1.17201376
S        9.38689100       7.97834100      13.13807300       1.06159852      -0.17660871      -0.08100910
P        7.09300000      11.74798900      15.61475500      -0.02512525      -0.06102907       1.39432245
P        9.30135900       1.43790200      13.92781400       0.09373909      -0.18035077      -1.04817964
S        8.53333600       3.32707300      14.15782400       0.14665002       0.38101321      -0.87917699
S        6.30049600       7.27392600      13.18434000      -1.01466558       1.27124152       0.88742021
S        7.51906400       0.39069000      15.67413400      -0.28987032      -0.53463898      -0.04623424
S        7.77101900      10.85960300      14.01350100       0.01188472      -0.18357487      -0.50470407
S        7.22913000      10.62481600      17.39603700      -0.00296047       0.95922453      -0.90205144
S        9.24118300       1.25157700      11.78197800      -0.59273906      -0.37659446       1.03621392
P       15.30195300      10.51650800       2.45526700      -0.33660929       0.49517120      -0.46339785
P       11.14158300       7.41109700      14.01297800      -2.08708391      -1.14759977       0.88845815
S       15.20233100       4.08587400       1.36070600      -0.36189587      -0.27404834       0.38007592
S       11.38736300      11.54160300      12.67073300      -0.59896808      -0.29449144       0.87069239
S       12.03895100      11.52731500      10.74481800       0.65210658       0.00202784      -0.16729388
S       13.65599600       9.49888300       1.97131200       0.10111177       0.43248306       0.16587826
S        0.90708100      10.49781700       0.57513600      -0.45710005      -0.49024367       0.84905697
S        8.47531700       6.67923800       9.01077600      -0.08268763       0.04417629       0.00135105
P        9.24308500       4.55964000      15.94858900       0.27674795      -0.32278667      -0.07963889
P       14.76189000       0.91002600      15.35259500       0.10048313       0.19880978       1.46579547
S       13.48317900       2.94947400       1.23853500       0.21487986       0.19044016      -0.00030881
S        9.98917200       3.22143200      17.22232400      -0.18458585       0.43216579      -0.08622885
S       12.15405600       5.54471700      10.97221100       0.45663861      -0.43467645       0.33725297
S       15.01226900      12.70219200       1.93738700      -0.43723614      -0.61994182       0.57410752
S        9.46326200       7.17346400      17.17118600       0.13517990       0.14562609      -0.71707568
S       14.62247300      11.74036300      13.00498200       0.85219411      -0.19989188      -0.68285366
P        3.05820400       0.95316300       3.38302300      -0.97306617       0.84566220       0.18863994
P        4.30278300       7.20925000       4.17767600      -0.14339063      -1.07212026      -0.34310017
S        3.04432200       8.40568200       5.28416100      -0.37670868      -0.58246877      -0.41261878
S        3.55783600       2.44831300       4.65844100       0.16527392      -0.52525911      -0.73613720
S        3.33904300       6.32728900       2.52048500      -0.49354093       0.57759775       0.68896104
S        4.88342100       5.58424700       5.34666400       0.59777711       0.56311186      -0.01333916
S        1.51921600      13.04589700       4.23513700       1.33913295       0.10552152       0.00297000
S        5.89821000       8.15465200       3.30618700       0.22574644       0.22275970      -0.11466619
P        4.97811500       5.17672400      16.64691400      -0.86801849       1.52919154       1.05026395
P        4.19011500       2.02775400      18.03542400       0.20071893       0.48808187       0.08790820
S        4.05370500       4.05946700       0.29833600      -0.49360878      -0.35436132      -0.94951983
S       14.96330700       9.51712800      16.20324300       0.85228915       0.89212553       0.10007370
S        6.43588700       4.23258200      15.70226100       0.28383818      -0.61701456       0.02878079
S        3.36211900       1.39766400      16.26741100       0.41077115       0.31654456       1.42122037
S        5.61285600       6.71839400      17.85995300       0.01432589       0.05260727      -0.93859768
S        0.85531900       0.88998800      12.23013600       0.47280196      -0.01639963      -0.33356388
P       10.25955100      12.15704500       2.34888800      -0.59152576      -0.72695576       0.87736121
P       15.31219200       0.50285100       3.69508500       0.46071189      -0.39049444       0.13965844
S       15.23897500       5.71408100       4.47590300       0.57935491      -1.30575343      -0.09862598
S       10.71223000      10.72343800       0.96622100       0.43096803      -0.15381648      -0.14507290
S        7.56098100       4.97228900       1.49635300       0.23709121      -0.29828835      -0.05707086
S       10.88445800      11.74562900       4.28200500      -0.13045816       0.13202767      -0.39095486
S        8.17232600      12.00234300       2.25857500      -0.00654102       0.58691286       0.30834865
S        2.35525400       1.53669300       1.50520400      -0.14175912      -0.12871015      -0.54840164
P       10.95679000       8.07645200      16.16486400      -0.03427070      -0.00041978       0.06205208
P       14.16957000       7.89803000      15.34843200      -0.46595091      -2.91898433       0.32696890
S       15.12337500       2.83249000      14.89659000       0.30109550       0.13631938       0.04494678
S       11.02123800      10.03041500      15.92591800      -0.18909369       0.53350906       0.45898725
S       12.94392200       8.26515700      13.51618700       1.06668665       0.81283321      -0.41441491
S       11.42149700       5.42671900      14.31280800      -0.37713002      -0.72803671      -0.13233053
S       12.82663500       7.12487400      16.78842800      -0.83773048       0.34125833       0.30187804
S       15.13558100       6.13347000      15.09891700       0.57218963       1.21746334      -0.28894209
P        5.75220400      12.99363900       7.52879300      -0.10119150      -0.11061565      -0.35552700
P        7.16324200       9.49889200       7.67252100       0.23163034      -0.91635320       0.26948287
S       10.93264700       9.52782200       6.96496000       1.72672401      -1.16705888      -0.20816918
S        4.09091200      12.13432200       6.61309100       1.40492293       0.10074806       0.67857037
S        8.04331500       9.47634000       5.89844800      -0.18612202       0.30605112      -0.21861149
S        7.25705100      11.30976800       8.62393800      -0.73387386       1.83303644       0.28361924
S        6.89608600       0.89207000       6.52618700      -0.37932935      -0.60602502       0.35604622
S        5.35500200       8.66508900       7.83703800      -0.12059870      -0.34557497       0.00994609
P        0.49132300      13.11332900      13.74893800      -1.25895114      -0.17381612       0.51063797
P        4.05578400      12.16386400      14.00275400       0.26981229       0.24984689      -0.16508797
S        4.75902800      13.21792600       2.92526200       1.08412075      -0.08405185       0.78199929
S        1.36518900      10.56380000      10.45081100       0.57840958      -0.02310633      -0.43296564
S        4.43931600       0.34588200      12.78186600      -0.31464735      -0.54996475       0.86050357
S        2.72590600       8.93532900      16.76396500       0.94318083      -0.07840953      -0.68171667
S        5.93695000       1.45973400       0.67661000      -0.46826693      -0.34388562      -0.58965502
S        4.85369900      11.53050900      15.90024300       0.34266346       0.52483867      -0.72549718
P       11.18658400       1.81740600       7.70267900       0.01773222      -1.13432826      -0.88973455
P       14.97276800       0.52788200       7.01989200      -0.77030214       0.05998404       0.09344529
S        0.12901200       2.13407300       6.17976500       0.05494575       0.84915278      -0.01773412
S        9.98613200       0.64742300       8.86188200       0.46694057       0.36884644      -0.12147785
S        7.70218700       2.77605100       4.01593300       1.27591141       0.69486534      -0.07002923
S       13.14039400       0.91445600       8.28652800       1.31860390      -0.59175721      -0.05228180
S       11.34381900       3.67986800       8.27515500       0.01487389       1.24104725       0.52716158
S       14.11516800      12.90401100       5.28423800       0.15092425      -0.30199017       0.14825075
P       10.70075700       6.10163100       3.14927100      -1.27949360      -0.48422685       1.09316073
P        8.55767400       3.31887500       2.06045900       0.05616063       0.75054864       0.49775057
S        0.18816400       3.95685700       3.35050400      -0.28518858       0.86327094       0.25229479
S       10.49200800       7.51589100       1.78728400       0.73178403       0.00657119       0.23980611
S       10.65104900       3.96739200       2.67822400      -0.30495921      -0.06563755      -0.26459604
S        8.92668700       6.21260000       4.39303100      -0.14158845      -0.56098880      -0.48019025
S       12.30559400       6.14691200       4.39348700      -0.09723661       0.00458074      -0.35781669
S       10.96498400       0.54824100       1.68852900      -0.02143560       0.66676573       0.10288962
Na       2.45027600       2.49559100      13.85162500      -0.02912590      -0.37009791       0.28529258
Na      10.97223100       9.02047200      11.10049100      -0.19082970      -0.33144328      -0.16364653
Na      10.35073500       6.70327700       6.63925200       0.02445417       0.13462196       0.61796135
Na       4.25681800       8.65235700       1.12345100      -0.07236669      -0.16869727      -0.06447062
Na      10.11945900       3.71232100      11.25153500       0.14985158       0.22195124       0.09958449
Na       5.13231900       9.82494600       5.16954900       0.40301474       0.73683368       0.07156716
Na       5.07482000       4.77813600      13.32132700       0.16983478      -0.05649245      -0.13535352
Na       2.09180500       7.68363800      13.65189400      -0.19435524      -0.64966679       0.26873223
Na       5.02663600       4.22957500       2.82711000       0.57607681      -0.13138235       0.28331723
Na       8.08776600      12.37175500       4.96866800       0.36720551      -0.08167560      -0.14843325
Na      14.39260400       9.42643200      10.85632300      -0.09351268       0.10844372      -0.31615051
Na       6.95795800      13.06299200      12.35843400       0.46874539      -0.13054260      -0.05250691
Na      12.72690400       3.02558800      16.65523400       0.04590275       0.17732746      -0.02143138
Na       2.38478700       5.14845500       4.98221200      -0.65481496      -0.16608033       0.16359524
Na       9.25389300      12.90520200      17.79075700      -0.48235567      -0.06298604       0.07657051
Na      12.64578600      12.52950700       0.04266800       0.04071502      -0.32701389       0.05991431
Na       3.98615500      10.83871300       9.13170600      -0.63130980      -0.11120823      -0.47905253
Na       7.04799900       8.42564200      15.79008400       0.54069936      -0.31839622       0.13141770
Na       5.81367100       5.42089600       8.65695000       0.78857274      -0.04221695      -0.85304398
Na       8.27137100       9.22938400       2.04434200       0.05216951       0.03933809      -0.06745917
Na      13.92218800       0.37094700      10.85305400       0.00693372      -0.12756592       0.10238753
Na      14.08556100       4.17426900       6.91804400      -0.17555668       0.23328561       0.18399852
Na      13.48277100       6.82303500       1.88789300       0.12144834      -0.29991329      -0.19368669
Na       2.54871500      12.32597700      17.85926400       0.58475685       0.74283313      -0.06816640
Na       7.72700600       2.00865000       9.10673500       0.10510542       0.17985868      -0.28946902
Na      12.02947000       9.17509000       4.40191700       0.04252212       0.14109682      -0.25095718
Na      13.04619100       1.91073600       4.00568700      -0.50675846       0.43967916      -0.30571266
Na       0.89197600       7.61710000       3.33903800       0.52165505       0.39600204      -0.07668442
Na       5.46136500       7.52450300      10.71399200       0.45115430       0.60697419      -0.05437053
Na      10.12762100      11.40618200       8.46385600       0.05326601       0.34840011       0.18704432
Na       2.72989000       0.98332100       6.93300000      -0.24600132       0.58695491      -0.08669337
Na       1.40136100       4.36532300      17.22055400       0.05828867       0.12403490      -0.20062956
160
Lattice="15.659932 0.0 0.0 0.004977 13.389538 0.0 0.013941 0.080597 18.122722" Properties=species:S:1:pos:R:3:forces:R:3 energy=-1484253.556516982 pbc="T T T"
P        9.25430900       4.19721300       5.52924700      -0.13302852       0.13959349      -1.39138052
P        0.60943100       5.53809800      10.38156500      -0.85435336       0.21894565       0.43963793
S       13.48116200       3.90902000      11.99078600      -0.09080254       0.08720766      -0.76496570
S        8.18864000       4.34777300       7.21673200      -0.40527521      -0.15317362      -0.09242315
S       15.51238700       6.51641100      12.00136000       0.44927157      -0.10998864      -0.14075103
S       15.64535400       3.56258200      10.45433300      -0.45245916      -0.26669891       0.48868572
S        8.32822400       9.25884400       9.56835100      -0.15904554       0.70904286      -0.20406750
S        0.09922900       6.37403600       8.64893200      -0.27496456       0.18520549      -0.57543422
P        0.58498500       9.06862300      17.34959200       0.77941851       0.08317399       1.85946208
P        3.97288200       9.99621100      12.56131100       0.96944025       0.16383701      -1.19340237
S        5.30454700      11.71170200       1.75354100      -0.82932551       0.43317071      -0.00172785
S        3.31198900       5.47962200      15.74462600      -1.16698855       0.07841076      -1.21401651
S        2.02750000       9.24569700      12.49198900      -0.28398853      -0.23252363      -0.43555616
S        5.04766300       8.62234600      14.06860100      -0.75250007      -0.14000682      -1.18833336
S        0.56457300       7.76766100       0.96924000       0.41847601       0.05072047      -2.13809052
S        4.86517000      10.33611700      10.66109000      -1.10352266       0.51632470       2.16631440
P       14.95621300       9.96935600       6.63715500      -0.30437335       0.03487757      -0.66558944
P       12.46600300       8.45362500       7.46258200      -0.31460478      -0.67981869      -0.14405965
S       11.38057900       2.00893400       5.73548800       0.62063543       0.26158903      -0.22966426
S        0.66423800       0.11257100       8.26413800      -0.11639903       0.03686014       0.53207638
S       14.05411000       7.90676300       6.06755400      -0.26595943       0.90822037       0.58077055
S       13.22439500      10.30019600       8.17299100      -0.26503135      -0.31745158      -0.34976014
S        0.99365500       9.67210500       7.52851600       0.51444392       0.04359552       0.76804539
S       12.33217600       6.98686500       8.92404400       0.59227197       0.50426453      -0.06311146
P        5.18695600       3.06592600       9.25694000      -1.65354452      -0.56074254      -0.74977705
P        2.84632000       5.41486500      10.44061100      -0.18940047      -0.40197266      -0.62644252
S        3.34639800       5.83576100      12.24105200       0.51892984      -0.23695920       2.13691219
S        4.69504700       3.63063000       7.40916300       0.86068650       0.46908859       0.29789223
S        3.13910200       3.19366700      10.23675500       0.56583852       0.37084541      -0.38579626
S        6.77723900       3.67070100      10.26110500       0.00940017       0.22724532       0.35902698
S        5.06903800       0.80752200       9.42296900      -0.37821262       0.14483261       1.06196626
S        3.48899700       6.78965200       9.14985400       0.48650910      -0.31722928      -0.16729440
P       12.77434000       0.11746200      14.83180200      -0.62847109       0.01402723      -1.12635207
P       12.55532100      11.38048300      13.94568600       1.53262710      -0.51817103       1.36503135
S        1.97430700      11.91261200      14.65914800       0.22217385       0.58035445      -1.21246059
S       11.74327100      13.31933300      16.56364100       0.74065715       0.72968976      -0.70626771
S       12.04182800       1.31914900      13.23558800      -0.02566605      -0.06913244       0.92104876
S        1.88476800      10.88218100       2.45614800       0.02620532      -0.41525766       0.30586061
S       15.66538100       0.92538800      16.72318300      -0.27467376      -0.29072360      -1.29613420
S        9.30468600       7.49027900      13.46181800      -0.30050828      -0.44452362      -1.55641243
P        7.11727400      11.36797200      15.44313100       0.25552797       0.92826742      -0.08527421
P        9.48724100       0.87826100      13.80091100      -0.91357281       0.07021676      -0.43775584
S        8.38175200       2.83870300      14.61316000       0.71616024      -0.55809450      -0.22604927
S        5.97893500       7.12089200      12.98837400       0.06903332       0.75443609       0.75283274
S        7.91870200      13.29369900      15.41346900      -0.23607059       0.31256159       0.40068778
S        7.79806600      10.56447100      13.76753700      -0.11431256      -0.52784758      -0.19558657
S        7.30915400      10.54633600      17.25550600       0.04444527      -0.24951682      -0.16225849
S        8.71780200       0.66188300      11.92669800       0.80215215       0.70308433       0.64892915
P       15.60302200      10.94217400       2.09157500      -0.48289914       0.55315975      -0.41848476
P       10.86616700       6.53243300      14.21272800       0.84323461       1.44472399       1.47692448
S       14.60233700       3.88904700       1.00314200       0.71481085       1.18587778       0.74300587
S       11.27927100      11.18882900      12.43461400      -1.51438338      -0.04129410      -1.05687137
S       12.05470600      10.59983000      10.52698500       0.51461444       0.33023012       0.35037645
S       13.98263100       9.98500600       2.82010600       0.95117619      -0.31104941       0.07688660
S       15.34106600      10.97339700      17.95034100       0.21007046      -0.04402653       0.08566227
S        8.43564000       7.19308000       9.55260100      -0.27522432      -0.13516779      -0.07678925
P        9.46825300       4.04454800      16.04741800      -0.38263136       0.14436822      -0.84235161
P       15.04736600       0.75562700      14.75258600       0.10934232       0.99927704       1.06693661
S       14.12363300       2.05032600       0.62800100      -0.88361121      -1.05229821      -0.21392952
S       10.41024200       3.07318900      17.48829600      -0.17917716      -0.21121160      -0.12288896
S       12.28662800       5.30713700      11.25508300       0.04682386      -0.20106157       0.11230517
S       15.06255300      12.99018700       2.10983300      -0.34415583       0.64700103       0.01831407
S        8.93918400       6.86351500      17.42898700       1.66411394       0.82082767      -1.30501701
S       14.53345100      11.06289300      13.02523500       0.57943091       0.14219053       0.08956644
P        3.47643200       1.14883400       3.33388000       0.76689582       0.18731163       0.10712006
P        3.82581700       7.31359500       4.32888100       0.17162140       0.84706414       0.25604825
S        2.59688700       8.63971100       5.36081800       0.69522937      -0.12403870       0.24076299
S        4.45158100       2.72802000       4.02510100      -0.64301825      -0.72331303       0.25411879
S        2.64230300       6.01363400       3.37277500      -0.01148082      -0.23083403      -0.50751184
S        5.06978800       6.24088900       5.53777600      -0.03716008      -0.11520110       0.02988503
S        1.82812700       0.30315500       4.44375400       1.01471165      -0.17411371       0.43373492
S        4.98679200       8.51001600       3.05923600       0.51390187      -0.23527296      -0.02666412
P        4.82453300       5.53667300      16.99625200       1.72956450      -0.88674559       0.04798672
P        4.37938500       2.17220500      18.02388400      -1.38824743       0.80695700      -0.96012853
S        4.26079600       4.20748100       0.54156300      -0.47626641      -0.49119535       0.55162602
S       14.77379800       8.69630600      15.88027000      -0.11845385      -0.14162665      -0.78944851
S        6.45548700       4.46803600      16.13814100      -0.34432448       0.95831377       1.52951451
S        3.27729300       1.82419600      16.34080000       0.36891923       0.09284437       1.16231728
S        5.29172300       7.25559300      17.87808100       0.11089364       0.16460455      -0.00128124
S        0.68148800       0.29164100      11.57577100       0.70263146      -0.56640581       0.56501785
P       10.20187800      12.24473600       2.84006300      -0.31533650      -0.28397153       0.97749104
P       15.58074400       0.96565000       3.84089800      -0.61230815      -1.34920883      -0.02374840
S       15.22972200       5.36916700       4.02043200       0.35362737      -1.04112742      -1.08911940
S       10.26348700      10.50865400       1.68663600      -0.52785569       0.00511593       0.28621533
S        8.11541500       4.97118900       1.26456200      -0.47028327       0.25608023      -0.11518076
S       11.34872300      12.14605400       4.58786700       0.19205245      -0.56411829      -0.80230505
S        8.23093400      12.58848900       3.47940700       0.78215119      -0.12981962      -0.80335125
S        2.58823200       1.35200000       1.53080800       0.36981273       0.06155733      -1.46028565
P       10.50115500       7.61305800      16.23732600       0.51802747       0.75592524       0.68670211
P       13.93215900       6.74553900      15.87361000      -2.28759876       0.28741255      -0.19465792
S       15.01619600       2.55474500      13.75211200       0.43454877      -0.77723798       0.75436460
S       11.11980300       9.56663900      15.88271000      -0.77488331      -1.08475022       0.43848874
S       12.81879300       7.26764800      13.78687700       0.13718231      -0.24170427       0.46080269
S       11.14114700       4.55661700      14.32939400      -0.28536627      -0.94205485       0.27275181
S       12.31623100       6.72048900      17.28350600       0.84032282      -0.65549238      -0.10217769
S       14.84126900       5.01148800      15.50281400       0.44835219       0.27597992       0.20197434
P        5.47216800      13.15697600       7.60027500       0.28024648       1.33482091      -0.45226518
P        7.05737500      10.09064500       7.77820900       1.57961798       0.57713845       0.51250827
S       10.58079300       8.59542900       6.69322500       0.78375008       0.56589372      -0.38694550
S        3.72883800      12.54228400       6.77084600       0.87917702      -0.41581454       0.56454537
S        7.97650100      10.49326100       6.03389200      -0.58434629      -0.28866817      -0.07137286
S        6.96900000      12.05362900       8.74317700      -0.09310646      -0.98935663       0.25309606
S        6.59017500       1.00303700       6.55185600       0.25265975      -0.04660983      -0.70492526
S        5.40159200       9.11698500       7.92666000      -1.16739563      -0.67401617      -0.86393978
P        0.46785800      12.63830700      13.29539600      -1.05023238       0.20096227       0.18684241
P        4.04533600      12.18395700      13.61260200      -0.37608018       0.88520785       1.40706458
S        5.02561200      12.87920900       3.39634000       0.04493523       0.10852835      -0.11734444
S        1.02501800       9.62425100      10.70544400       1.45172685       0.76278798       0.37908179
S        4.49848500       0.69943900      13.03203700      -0.13785015      -1.33120313      -0.01037180
S        2.37820800       9.42626300      16.45993400      -0.89111391      -0.52275360       0.79456955
S        6.15771800       1.44879200       0.05011100       0.65623956      -0.55926665       0.43429413
S        4.90256700      11.63058700      15.57639900      -0.18922603       0.04195994      -0.68309931
P       11.47139800       1.76687100       7.69256900      -0.60534745      -0.83559265       1.29860056
P       15.06353900       1.01775000       6.98208100       0.58959422       0.04791430       1.25150137
S        0.17088200       2.75511200       6.29423600      -1.03697961       0.33058055      -0.48027873
S       10.44823400       0.09827300       8.42849900       0.22559353       0.71636191      -0.31389456
S        7.83735400       3.19325500       3.91878400       0.10327832      -0.40431741       1.37020024
S       13.46886700       1.38421700       8.50919600       0.39364393       0.02679187      -1.14020950
S       10.93283900       3.31947400       8.92007300       0.59193211       0.15208639      -0.22593430
S       14.89846400      12.98495600       5.45464300      -0.77840972       0.21839855      -0.60696194
P       10.97543300       6.10581000       3.50697700      -0.61868926      -1.28801299       0.43930228
P        8.94480500       3.44875500       2.23127900       1.07649562      -0.04852209      -0.70242316