 64
 energy=-528901.84163215454 cutoff=6.00000000 nneightol=1.20000000 pbc="T T T" Lattice="6.60550000       0.00000000       0.00000000       0.00000000      11.71400000       0.00000000       0.00000000       0.00000000      20.73780000" Properties=species:S:1:pos:R:3:forces:R:3:Z:I:1:map_shift:I:3:n_neighb:I:1:force:R:3
 P               0.85373800      1.85430000     12.87780000     -1.06099588      3.37155593     -0.83101963      15       0       0      -1      43     -0.96886038      2.90402635     -0.76148778
 P               6.19306000     11.00990000      7.77287000      1.20799428      0.85262464     -0.66915282      15      -1      -1       0      47      1.41125737      0.62907592     -0.12946023
 P               4.21780000      7.89096000     13.09370000     -1.00287279     -0.87594120      0.55643467      15      -1      -1      -1      47     -0.97087842     -0.75382827      0.54583607
 P               2.89120000      4.88718000      7.76944000     -1.08411663     -0.20372563     -0.56459862      15       0       0       0      45     -1.14426137     -0.27886933     -0.68502418
 P               4.53708000      1.47905000      2.34085000     -1.93975162      0.77252524      0.21698150      15      -1       0       0      46     -1.94044052      0.43290033      0.55722681
 P               2.86971000     11.24520000     17.71730000     -0.91291551      1.03650605      1.80304948      15       0      -1      -1      45     -0.84232113      0.54975083      1.27282658
 P               0.79472000      7.44339000      2.72664000      0.66065631      0.33674975     -0.27472606      15       0      -1       0      45      0.64669207      0.42938111     -0.28235512
 P               5.84842000      5.30477000     18.67180000      0.06249825     -0.42038777      0.99704931      15      -1       0      -1      42      0.31004617     -0.20986803      0.87565710
 S               1.75698000      3.61934000      6.42680000      0.38724895      0.40600989      0.62132046      16       0       0       0      43      0.35616590      0.40553453      0.53134737
 S               5.08876000      8.46657000     14.86430000      0.72188997      0.70501464     -0.88190671      16      -1      -1      -1      43      0.76258140      0.74517188     -0.62113861
 S               3.94977000      6.20381000      6.66708000      0.61830435      0.31526150      0.16327251      16      -1      -1       0      49      0.63221741      0.37218296      0.15466185
 S               2.72721000      6.51403000     13.70350000      0.29312440      0.10277117     -0.13052089      16       0      -1      -1      46      0.15208009     -0.07099929     -0.12749340
 S               3.78706000      3.94228000      9.26524000      0.68783266     -1.11334252      0.60900967      16      -1       0       0      47      0.59086186     -0.84794189      0.54223924
 S               3.37162000      9.29486000     11.84180000     -0.00208486      0.15355832      0.15364861      16      -1      -1      -1      44     -0.14047102      0.30315738      0.05531436
 S               1.45373000      5.82541000      8.88160000     -1.32832019      1.34358110     -0.36861984      16       0       0       0      46     -1.18817086      1.11935140     -0.31039940
 S               5.51720000      6.79311000     11.96140000      0.56247181     -0.23622602     -0.21006027      16      -1      -1      -1      44      0.76817700     -0.46546926     -0.35390010
 S               1.78554000      9.96179000     16.42850000      0.69403809     -0.47077838      0.41531115      16       0      -1      -1      43      0.69137196     -0.20762435      0.74353126
 S               4.81228000      2.94802000      3.80935000      0.87749296     -0.28026933      0.28176599      16      -1       0       0      43      0.82089216     -0.23892459      0.12126556
 S               3.64800000      1.11586000     16.68330000      0.84710106     -0.56241410     -0.52980608      16      -1       0      -1      48      0.75000070     -0.29025899     -0.35258745
 S               3.84451000     11.44230000      3.28826000     -0.00148111      0.04427979     -0.08486742      16      -1      -1       0      41      0.07053581      0.19953489     -0.24369372
 S               4.24065000     10.42780000     19.19510000     -0.67016309      0.09853099     -1.50117036      16      -1      -1      -1      39     -0.73952311      0.11566387     -1.32315565
 S               2.92465000      2.34274000      1.29345000      0.48011292     -0.31442287      0.12041086      16       0       0       0      43      0.45364429     -0.26106955      0.09045096
 S               1.40465000      0.60021100     18.92250000      0.38210706     -1.15574443     -0.68186299      16       0       0      -1      44      0.41397263     -1.02677733     -0.56832031
 S               6.00813000      1.05136000      1.07115000      0.83485315     -0.30042402      0.37058320      16      -1       0       0      45      0.79705156     -0.09357731      0.31307851
 S              -0.08489600      3.67758000     19.89750000      0.13216798      1.34448573     -0.92517080      16       0       0      -1      47      0.18404509      1.27707638     -0.87384266
 S               2.06934000      7.99342000      4.28652000     -0.85871995      0.38021062      0.13106168      16       0      -1       0      44     -0.91276027      0.34930876      0.09320487
 S               4.68768000      6.63694000     19.79490000      1.37719973      0.80487040      0.27809308      16      -1      -1      -1      43      1.35376704      0.75399388      0.27238517
 S               5.40552000      7.23725000      3.27330000      0.46019208      0.41290955     -0.04928089      16      -1      -1       0      47      0.59698540      0.33001365     -0.05302590
 S               4.47230000      4.68941000     17.36410000     -0.77764033     -0.71891904     -1.45540481      16      -1       0      -1      40     -0.82620887     -0.75148872     -1.23787445
 S               1.01973000      8.95509000      1.24753000     -0.48772317     -0.36683989      0.19385178      16       0      -1       0      44     -0.46607959     -0.43207984      0.13881527
 S               0.81201600      6.13064000     17.55260000     -0.17278555      0.21185722      0.36527265      16       0      -1      -1      47     -0.27863511      0.08647270      0.53071585
 S               1.57458000      5.66393000      2.06732000     -0.31331565     -0.33223227     -0.55555735      16       0       0       0      48     -0.35230735     -0.33630756     -0.53027025
 S               5.23390000      9.52966000      6.87318000     -0.97093242     -1.25297623     -0.00715421      16      -1      -1       0      42     -0.98037361     -1.19198971     -0.19563580
 S               0.43405400      2.99470000     14.54390000     -0.02371468      0.37191754      0.40426576      16       0       0      -1      44     -0.10888364      0.35169759      0.35436094
 S               0.91753600     11.69580000      6.28456000      0.12109760     -0.20089986      0.47776374      16       0      -1       0      45      0.09551743     -0.06272277      0.21757011
 S               0.20431400     11.76730000     13.23050000     -0.66801332     -2.72765766      0.35619968      16       0      -1      -1      43     -0.65917219     -2.40022169      0.36327325
 S               0.70874600     10.25170000      9.43020000      0.10979466      0.26376680     -0.30101639      16       0      -1       0      45      0.13916660      0.35630475     -0.56405272
 S               6.18983000      2.78538000     11.35160000      0.87080580     -0.57781273      0.67718661      16      -1       0      -1      44      0.85299693     -0.57026711      0.76438417
 S               4.99819000      0.86149700      8.36004000     -0.13770752     -0.11048455      0.47123346      16      -1       0       0      44     -0.27669059     -0.03756409      0.32060237
 S               2.76703000      2.03393000     12.26750000      0.68337895     -0.66229526     -0.07931553      16       0       0      -1      45      0.64694613     -0.56620928     -0.17629223
 Na              2.25461000      8.84010000      7.15678000      0.00237359      0.04075026     -0.10003209      11       0      -1       0      44      0.04539314      0.12294712      0.01172867
 Na              2.29706000      0.93732500      9.68267000     -0.06368762      0.29544136     -0.16572934      11       0       0       0      41     -0.07500483      0.14105219     -0.09296926
 Na              4.73945000      1.66415000     19.59040000     -0.49650745     -0.09194862     -0.35359073      11      -1       0      -1      47     -0.44673964     -0.16841323     -0.39038635
 Na              2.43598000      5.51172000     19.79080000     -0.67610954     -0.49605816      0.24916138      11       0       0      -1      49     -0.73757867     -0.50414242      0.21942311
 Na              1.43680000      2.92616000     17.32050000      0.04504193      0.08051723      0.01833651      11       0       0      -1      44      0.11221471      0.04485081     -0.01911359
 Na              3.91808000      7.51060000     16.95800000     -0.57378241     -0.19799752      0.66950924      11      -1      -1      -1      46     -0.56658289     -0.06434014      0.45349830
 Na              3.90256000      0.99101700      5.85620000     -0.04340961      0.07872631     -0.09109824      11      -1       0       0      44     -0.07771856      0.08259120     -0.02478362
 Na              6.28277000      3.44722000      8.73505000      0.52419040      0.05185690     -0.49677693      11      -1       0       0      40      0.53692827      0.03679580     -0.47453864
 Na              4.32036000      4.27396000     12.69400000     -0.06991914     -0.35565067     -0.14561884      11      -1       0      -1      45     -0.07978104     -0.18580033     -0.12797301
 Na              1.21190000      2.34822000      4.10353000     -0.14912600     -0.03246845     -0.44255940      11       0       0       0      48     -0.15736506     -0.11000633     -0.40846026
 Na              4.54379000      9.26569000      1.26847000     -0.05571476     -0.19827700     -0.04510631      11      -1      -1       0      46     -0.08794507     -0.24875202     -0.08446983
 Na              5.49888000      8.28371000      9.64610000     -0.19257450     -0.51786088     -0.60531726      11      -1      -1       0      45     -0.23445220     -0.52334566     -0.39668721
 Na              1.82362000     11.55520000      1.00920000      0.24972025      0.11656416     -0.15007096      11       0      -1       0      45      0.24892562      0.06335850     -0.14736727
 Na              3.04850000      5.53279000      4.20774000      0.62514941     -0.50577426      0.09957483      11       0       0       0      43      0.68085962     -0.52400434      0.12691602
 Na              2.87764000     11.06360000     13.96990000      0.14470387      0.50140306      0.32939669      11       0      -1      -1      42      0.21415471      0.31080193      0.23555286
 Na              1.27345000      5.33082000     11.50440000      0.18316712     -0.59621238     -0.05178254      11       0       0      -1      44      0.14275042     -0.45570027      0.07555913
 Na              5.54485000      4.76282000      1.58224000     -0.07145398     -0.00049764     -0.09297998      11      -1       0       0      41     -0.05779149      0.02717590     -0.08492951
 Na              5.92702000      5.67712000     14.88220000      0.29641918     -0.17408561      0.57650976      11      -1       0      -1      47      0.35529128      0.03858488      0.46341260
 Na              5.20037000     11.12670000     10.93550000      0.23853841      0.85833165      0.16862387      11      -1      -1      -1      40      0.17036173      0.73673260      0.24861781
 Na              6.27735000     10.20460000      3.87728000      0.22175550     -0.14180070      0.39954970      11      -1      -1       0      47      0.17974305     -0.12158171      0.51114406
 Na              0.33155400      9.01763000     18.73710000     -0.06547845     -0.05040090      0.26330596      11       0      -1      -1      47     -0.08000963     -0.04526513      0.15415097
 Na              6.28049000     -0.09605200     16.13890000     -0.22659190      0.44638261      0.05104801      11      -1       0      -1      45     -0.23153651      0.34400339     -0.01786960
 Na              0.91401500      8.42247000     12.98940000     -0.10180643      0.33902998      0.16313210      11       0      -1      -1      42     -0.08412683      0.27252502      0.13518786
 Na              0.40503000      6.04212000      5.73972000     -0.40400660      0.10483618      0.18996042      11       0      -1       0      42     -0.47092515      0.11339205      0.16561902
 64
 energy=-528902.84698524023 cutoff=6.00000000 nneightol=1.20000000 pbc="T T T" Lattice="6.60550000       0.00000000       0.00000000       0.00000000      11.71400000       0.00000000       0.00000000       0.00000000      20.73780000" Properties=species:S:1:pos:R:3:forces:R:3:Z:I:1:map_shift:I:3:n_neighb:I:1:force:R:3
 P               1.17013000      1.77901000     13.09250000      0.61090548      0.94153757     -0.09507023      15       0       0      -1      44      0.46492591      0.81472851      0.33007815
 P               6.31781000     10.85010000      8.02423000      0.71290591     -0.29069738     -1.60390155      15      -1      -1       0      43      0.74557250     -0.39641968     -1.35416580
 P               4.10043000      7.75072000     12.77400000      0.30107453     -0.83280325      0.76473227      15      -1      -1      -1      46      0.41584972     -0.93684771      0.95897453
 P               2.25772000      5.26058000      7.68115000      0.81982318     -1.37947189     -0.23411820      15       0       0       0      46      0.73269742     -1.44992016      0.16281591
 P               4.05617000      1.61055000      3.21857000      1.55006504     -0.78668476      0.40503857      15      -1       0       0      42      1.54430623     -0.81213219      0.24118413
 P               3.00291000     10.86870000     18.22880000      1.43546884     -1.14997139      0.15092240      15       0      -1      -1      44      1.44141516     -0.76191472     -0.17100301
 P               0.86491600      7.68522000      2.25573000     -0.22592971      0.53494077      1.27459066      15       0      -1       0      46     -0.25270384      0.28117184      0.97449924
 P               5.83998000      5.03575000     18.18120000     -0.72003958      0.58073656      0.74160107      15      -1       0      -1      42     -0.65263233      0.39510898      0.53986161
 S               1.24605000      4.14631000      6.31807000     -0.52525320     -0.49601424     -0.18839283      16       0       0       0      43     -0.56220583     -0.49181626     -0.35329485
 S               5.08871000      8.96980000     14.12960000      0.30515791      0.17969512     -0.15496285      16      -1      -1      -1      46      0.33582505      0.24009005     -0.16025052
 S               3.95123000      6.01181000      6.93990000      0.96490356      0.57328951     -0.33675737      16      -1      -1       0      48      0.96844292      0.64392423     -0.41919808
 S               2.81497000      6.53476000     13.87500000     -0.26497323      0.16679493     -0.51461837      16       0      -1      -1      47     -0.38172094      0.14186530     -0.57811347
 S               2.76904000      4.05092000      9.30074000     -0.21640455     -0.19965633      0.39984435      16       0       0       0      46     -0.09009766     -0.14414648      0.14270807
 S               3.18533000      8.77540000     11.33360000     -0.24380324      0.46404440     -0.64315825      16       0      -1      -1      45     -0.25162552      0.52584623     -0.67621017
 S               1.03703000      6.73288000      8.21211000     -1.12479921      1.27681220      0.86014787      16       0      -1       0      44     -1.13260054      1.25194296      0.62487230
 S               5.46579000      6.42366000     11.90590000      0.29878135      0.03223458      0.04198756      16      -1      -1      -1      46      0.40669633     -0.11254436     -0.12124966
 S               2.92640000      9.13233000     17.09480000     -0.49670097      0.71563746     -0.61845713      16       0      -1      -1      45     -0.48155687      0.67117080     -0.44920606
 S               4.51504000      2.65627000      4.91935000      0.26281675     -0.41636089      0.26636134      16      -1       0       0      42      0.20901951     -0.44807855      0.38044571
 S               4.28540000      0.61281000     17.31470000     -0.84144491     -0.07024744      0.20895722      16      -1       0      -1      44     -0.87288978     -0.12716464      0.30588935
 S               3.72129000     11.26630000      3.54779000     -0.41855042      0.85199109      0.07952154      16      -1      -1       0      41     -0.33224406      0.87322229      0.20382755
 S               3.94273000     10.16850000     19.90920000      0.26497651      0.68984903      0.53024565      16      -1      -1      -1      43      0.24278684      0.48912619      0.75769912
 S               2.45307000      2.47696000      2.38596000     -0.72063883      0.28414807     -1.03668525      16       0       0       0      43     -0.72978466      0.26826983     -1.01294873
 S               1.22048000     -0.10006100     18.59350000     -1.25108822      0.75789037     -0.01405690      16       0       0      -1      44     -1.29537350      0.69778365      0.17389791
 S               5.72615000      1.71306000      1.95483000      0.01363221      0.23332963     -0.08994001      16      -1       0       0      44     -0.04221010      0.23100931      0.05736198
 S               0.28368100      3.46420000     18.98110000      0.43745781     -0.36499441     -0.03456857      16       0       0      -1      44      0.40772637     -0.30371649      0.12871853
 S               1.93583000      8.37396000      3.88151000     -0.18147691     -0.66172995      0.12464391      16       0      -1       0      42     -0.04059927     -0.55387954      0.23060084
 S               4.51526000      5.63447000     19.70090000     -0.06994150     -0.56805839     -0.63847118      16      -1       0      -1      37     -0.10271284     -0.51940536     -0.54646618
 S               5.74661000      6.60483000      2.89319000      0.21905158      0.22865001     -0.08359887      16      -1      -1       0      46      0.13952509      0.24148594      0.01255058
 S               4.75696000      4.36673000     16.54580000      0.53789974      0.01849169     -0.71546362      16      -1       0      -1      42      0.56495415      0.08870169     -0.60832735
 S               0.25376800      9.45458000      1.39367000     -0.19886382     -0.51671852     -0.79475429      16       0      -1       0      47     -0.11253095     -0.51618377     -0.68500675
 S               0.32440200      6.63605000     17.54890000      0.33958430      0.10454433     -0.42507370      16       0      -1      -1      43      0.30504593      0.17627056     -0.34374345
 S               1.95123000      6.34906000      1.17674000      0.44374325     -0.19186835     -0.52545154      16       0      -1       0      47      0.37972729     -0.00484267     -0.37589763
 S               5.01315000      9.49251000      7.06431000      0.56141236     -0.20145775      0.43061958      16      -1      -1       0      46      0.60840760     -0.16692357      0.31342381
 S               1.91110000      3.14702000     14.58870000     -0.59103334     -0.75280442     -0.30781413      16       0       0      -1      42     -0.54729404     -0.74970410     -0.50234351
 S               1.03837000     -0.31293700      6.44079000     -0.39085071     -0.08786840      0.43694009      16       0       0       0      43     -0.42188714      0.02410079      0.32872016
 S               0.44621600     11.81660000     14.03400000     -0.24349819     -0.26602183      0.17781491      16       0      -1      -1      46     -0.22656327     -0.34968116      0.08249004
 S               0.84092800     10.16160000      9.56850000      0.02706481     -0.61108255      0.32336791      16       0      -1       0      45     -0.14978183     -0.46347681      0.04736007
 S              -0.18942900      2.73691000     11.88980000     -0.85205884      0.29535918      0.29589687      16       0       0      -1      41     -0.77499505      0.34941310      0.06604319
 S               5.26377000      0.67720400      8.73592000     -1.04203835      1.05291285      0.21542561      16      -1       0       0      43     -0.97736113      1.04284189      0.14119045
 S               2.56341000      1.29390000     11.66660000      0.61421378     -0.65663844      0.67697770      16       0       0      -1      44      0.59330855     -0.57116235      0.48768885
 Na              2.30124000      8.82593000      6.59124000     -0.02495543     -0.07144998      0.30104230      11       0      -1       0      47      0.00045006     -0.08747639      0.32885964
 Na              1.01782000      1.72797000      9.45039000      0.55876159      0.01097536     -0.21092735      11       0       0       0      42      0.55942658     -0.05159678     -0.07827996
 Na              5.22222000      1.28391000     20.06040000      0.05156490     -0.23496500     -0.04050493      11      -1       0      -1      43      0.05036206     -0.26796507     -0.17936244
 Na              2.01883000      7.73631000     19.50830000     -0.07955639      0.09115545     -0.07200054      11       0      -1      -1      45     -0.02371848      0.11725681     -0.17863272
 Na              2.81992000      3.42811000     17.84870000     -0.44098132     -0.16453702      0.35573428      11       0       0      -1      44     -0.47385529     -0.29602098      0.33423256
 Na              4.33409000      7.05645000     16.11400000     -0.06541423      0.01726866      0.22344543      11      -1      -1      -1      44     -0.08400966      0.04460733      0.19877670
 Na              3.93608000      0.14071400      6.27070000     -0.23418536      0.47385401      0.03624127      11      -1       0       0      42     -0.22105491      0.41624925      0.02446553
 Na              5.61480000      4.30210000      8.77755000     -0.22923622      0.17621481     -0.50061720      11      -1       0       0      43     -0.20685535      0.17991148     -0.32392102
 Na              3.80858000      3.33517000     12.73730000      0.46636229      0.48227572     -0.09135876      11      -1       0      -1      43      0.51314787      0.59343480     -0.04580007
 Na              0.81720700      2.17081000      4.44262000     -0.40160227     -0.27315688      0.33953074      11       0       0       0      42     -0.37171688     -0.27902367      0.32099093
 Na              4.62347000      7.69763000      0.66239700      0.01428831      0.39763817      0.21275893      11      -1      -1       0      41     -0.03180819      0.37585589      0.08285764
 Na              5.27586000      8.11405000      9.51834000     -0.06714726     -0.12771111     -0.29982768      11      -1      -1       0      43     -0.10683067     -0.16008306     -0.14441658
 Na              2.30986000     11.63210000      1.29814000     -0.31203572     -0.44713512     -0.26260371      11       0      -1       0      43     -0.34141317     -0.48883526     -0.44179348
 Na              3.47228000      4.70755000      3.58012000     -0.18490797      0.60994852      0.16448344      11      -1       0       0      43     -0.17078335      0.64091476      0.12713499
 Na              3.11134000     11.29680000     14.97880000     -0.00281305     -0.08968984     -0.17355521      11       0      -1      -1      40      0.03176834     -0.09642445     -0.17565856
 Na              1.50609000      5.88533000     10.94490000      0.31684570      0.09750742     -0.03587056      11       0      -1      -1      41      0.28567520      0.14039251      0.12580476
 Na             -0.27267400      4.51541000      0.97625400      0.03835688     -0.09212584      0.02010015      11       0       0       0      41      0.06442584     -0.04666534     -0.06959434
 Na              0.01581000      5.57823000     14.36330000      0.20948329     -0.29067217      0.17609410      11       0       0      -1      44      0.21521098     -0.29269797      0.16689801
 Na              5.73406000     11.43550000     11.41210000     -0.31195657      0.20666160     -0.00031001      11      -1      -1      -1      42     -0.34988508      0.18421058      0.13383188
 Na              5.95099000      9.91933000      4.02864000      0.41160633     -0.07843967      0.20851574      11      -1      -1       0      42      0.32738954     -0.04843353      0.20205101
 Na              5.86885000     10.17840000     17.02360000      0.28240229     -0.42805138      0.18897339      11      -1      -1      -1      43      0.34872639     -0.38567665      0.15070399
 Na             -0.05933600      1.94909000     16.50310000      0.21885107      0.13740423     -0.14932192      11       0       0      -1      43      0.23561100      0.12631195     -0.22783388
 Na              0.96078700      8.82065000     12.80010000     -0.19229966      0.02131381      0.17707937      11       0      -1      -1      46     -0.17840458      0.04303987      0.25522999
 Na              6.72396000      6.43945000      5.43597000     -0.12298239      0.09397745      0.08257647      11      -1      -1       0      43     -0.14671967      0.07060036      0.07797856
 64
 energy=-528901.54827964434 cutoff=6.00000000 nneightol=1.20000000 pbc="T T T" Lattice="6.60550000       0.00000000       0.00000000       0.00000000      11.71400000       0.00000000       0.00000000       0.00000000      20.73780000" Properties=species:S:1:pos:R:3:forces:R:3:Z:I:1:map_shift:I:3:n_neighb:I:1:force:R:3
 P               1.19939000      1.43811000     13.28880000     -1.32409256      0.24353763     -0.92936881      15       0       0      -1      43     -1.13824111      0.16921900     -0.73355515
 P               5.99529000     10.93800000      7.72048000     -0.54797550      1.50075073      0.99202539      15      -1      -1       0      48     -0.65551506      1.27646705      1.09892283
 P               4.78069000      7.58228000     12.43250000     -2.15003554      0.13289572      0.69110138      15      -1      -1      -1      48     -2.15639536      0.26748114      0.69178567
 P               2.77228000      4.77817000      8.09550000     -1.71866446      0.06852529     -0.86024059      15       0       0       0      44     -1.36353673      0.20779582     -0.39528604
 P               3.87104000      1.68616000      2.50151000     -0.47753491      1.45170016      1.89093970      15      -1       0       0      46     -0.54283644      1.18899331      1.80336525
 P               2.90582000     11.08930000     17.92560000      0.53788190      0.40202832      0.78022400      15       0      -1      -1      39      0.33196544      0.53708787      0.61209978
 P               0.39955000      7.46235000      2.84192000      0.40038357     -0.23215827      1.04689030      15       0      -1       0      45      0.60872954     -0.21421142      0.85072752
 P               6.02733000      5.15227000     18.19720000      1.46410178     -1.04668010     -1.33491675      15      -1       0      -1      46      1.48538993     -0.92194522     -1.37565702
 S               1.38627000      3.75322000      6.99196000      0.10875395     -1.11025171     -0.60956058      16       0       0       0      43      0.00185214     -0.97361778     -0.66269850
 S               6.16861000      8.14584000     13.90020000     -1.28109113     -0.56067551     -0.22986379      16      -1      -1      -1      44     -1.25762641     -0.53143483     -0.09600062
 S               4.47521000      5.09686000      7.08330000      1.16940433     -0.28549161      0.19353242      16      -1       0       0      49      1.12051569     -0.31964916      0.11534253
 S               2.97020000      6.65905000     13.51990000      1.68061686      0.72448789     -0.73376428      16       0      -1      -1      47      1.68290836      0.65656261     -0.78274605
 S               2.61998000      3.92821000      9.90661000      0.70906925     -0.39254717      1.25921923      16       0       0       0      44      0.60383307     -0.41877104      0.91541058
 S               3.79294000      9.06237000     11.17430000      0.74273903     -1.13892572      0.97146693      16      -1      -1      -1      49      0.67875095     -1.06549141      0.91381420
 S               1.78246000      6.57061000      8.13339000      0.19745880      1.87914864      0.71776581      16       0      -1       0      46      0.22111528      1.58653225      0.41232882
 S               5.65203000      6.13388000     11.30590000      0.28201676     -0.00912040     -0.17690341      16      -1      -1      -1      42      0.34818181     -0.25117562     -0.35435320
 S               3.19729000      9.74473000     16.44360000     -0.03394573     -0.25216331     -1.18541514      16       0      -1      -1      44     -0.09282787     -0.10580021     -0.99843080
 S               3.31817000      3.62196000      3.39021000      0.06562524     -0.97997913     -0.79059476      16      -1       0       0      41      0.12091609     -0.88327929     -0.72529136
 S               3.58396000      1.32014000     17.41180000     -0.29822096     -0.63132398      0.34770225      16      -1       0      -1      46     -0.35619638     -0.78262386      0.42747325
 S               3.12132000      0.22779700      3.85693000      0.20384645      0.45120122     -0.72870626      16       0       0       0      43      0.25271405      0.49734025     -0.73187818