64
Lattice="6.6055 0.0 0.0 0.0 11.714 0.0 0.0 0.0 20.7378" Properties=species:S:1:pos:R:3:forces:R:3 energy=-528902.849742122 pbc="T T T"
P        0.85373800       1.85430000      12.87780000      -1.06099588       3.37155593      -0.83101963
P        6.19306000      11.00990000       7.77287000       1.20799428       0.85262464      -0.66915282
P        4.21780000       7.89096000      13.09370000      -1.00287279      -0.87594120       0.55643467
P        2.89120000       4.88718000       7.76944000      -1.08411663      -0.20372563      -0.56459862
P        4.53708000       1.47905000       2.34085000      -1.93975162       0.77252524       0.21698150
P        2.86971000      11.24520000      17.71730000      -0.91291551       1.03650605       1.80304948
P        0.79472000       7.44339000       2.72664000       0.66065631       0.33674975      -0.27472606
P        5.84842000       5.30477000      18.67180000       0.06249825      -0.42038777       0.99704931
S        1.75698000       3.61934000       6.42680000       0.38724895       0.40600989       0.62132046
S        5.08876000       8.46657000      14.86430000       0.72188997       0.70501464      -0.88190671
S        3.94977000       6.20381000       6.66708000       0.61830435       0.31526150       0.16327251
S        2.72721000       6.51403000      13.70350000       0.29312440       0.10277117      -0.13052089
S        3.78706000       3.94228000       9.26524000       0.68783266      -1.11334252       0.60900967
S        3.37162000       9.29486000      11.84180000      -0.00208486       0.15355832       0.15364861
S        1.45373000       5.82541000       8.88160000      -1.32832019       1.34358110      -0.36861984
S        5.51720000       6.79311000      11.96140000       0.56247181      -0.23622602      -0.21006027
S        1.78554000       9.96179000      16.42850000       0.69403809      -0.47077838       0.41531115
S        4.81228000       2.94802000       3.80935000       0.87749296      -0.28026933       0.28176599
S        3.64800000       1.11586000      16.68330000       0.84710106      -0.56241410      -0.52980608
S        3.84451000      11.44230000       3.28826000      -0.00148111       0.04427979      -0.08486742
S        4.24065000      10.42780000      19.19510000      -0.67016309       0.09853099      -1.50117036
S        2.92465000       2.34274000       1.29345000       0.48011292      -0.31442287       0.12041086
S        1.40465000       0.60021100      18.92250000       0.38210706      -1.15574443      -0.68186299
S        6.00813000       1.05136000       1.07115000       0.83485315      -0.30042402       0.37058320
S       -0.08489600       3.67758000      19.89750000       0.13216798       1.34448573      -0.92517080
S        2.06934000       7.99342000       4.28652000      -0.85871995       0.38021062       0.13106168
S        4.68768000       6.63694000      19.79490000       1.37719973       0.80487040       0.27809308
S        5.40552000       7.23725000       3.27330000       0.46019208       0.41290955      -0.04928089
S        4.47230000       4.68941000      17.36410000      -0.77764033      -0.71891904      -1.45540481
S        1.01973000       8.95509000       1.24753000      -0.48772317      -0.36683989       0.19385178
S        0.81201600       6.13064000      17.55260000      -0.17278555       0.21185722       0.36527265
S        1.57458000       5.66393000       2.06732000      -0.31331565      -0.33223227      -0.55555735
S        5.23390000       9.52966000       6.87318000      -0.97093242      -1.25297623      -0.00715421
S        0.43405400       2.99470000      14.54390000      -0.02371468       0.37191754       0.40426576
S        0.91753600      11.69580000       6.28456000       0.12109760      -0.20089986       0.47776374
S        0.20431400      11.76730000      13.23050000      -0.66801332      -2.72765766       0.35619968
S        0.70874600      10.25170000       9.43020000       0.10979466       0.26376680      -0.30101639
S        6.18983000       2.78538000      11.35160000       0.87080580      -0.57781273       0.67718661
S        4.99819000       0.86149700       8.36004000      -0.13770752      -0.11048455       0.47123346
S        2.76703000       2.03393000      12.26750000       0.68337895      -0.66229526      -0.07931553
Na       2.25461000       8.84010000       7.15678000       0.00237359       0.04075026      -0.10003209
Na       2.29706000       0.93732500       9.68267000      -0.06368762       0.29544136      -0.16572934
Na       4.73945000       1.66415000      19.59040000      -0.49650745      -0.09194862      -0.35359073
Na       2.43598000       5.51172000      19.79080000      -0.67610954      -0.49605816       0.24916138
Na       1.43680000       2.92616000      17.32050000       0.04504193       0.08051723       0.01833651
Na       3.91808000       7.51060000      16.95800000      -0.57378241      -0.19799752       0.66950924
Na       3.90256000       0.99101700       5.85620000      -0.04340961       0.07872631      -0.09109824
Na       6.28277000       3.44722000       8.73505000       0.52419040       0.05185690      -0.49677693
Na       4.32036000       4.27396000      12.69400000      -0.06991914      -0.35565067      -0.14561884
Na       1.21190000       2.34822000       4.10353000      -0.14912600      -0.03246845      -0.44255940
Na       4.54379000       9.26569000       1.26847000      -0.05571476      -0.19827700      -0.04510631
Na       5.49888000       8.28371000       9.64610000      -0.19257450      -0.51786088      -0.60531726
Na       1.82362000      11.55520000       1.00920000       0.24972025       0.11656416      -0.15007096
Na       3.04850000       5.53279000       4.20774000       0.62514941      -0.50577426       0.09957483
Na       2.87764000      11.06360000      13.96990000       0.14470387       0.50140306       0.32939669
Na       1.27345000       5.33082000      11.50440000       0.18316712      -0.59621238      -0.05178254
Na       5.54485000       4.76282000       1.58224000      -0.07145398      -0.00049764      -0.09297998
Na       5.92702000       5.67712000      14.88220000       0.29641918      -0.17408561       0.57650976
Na       5.20037000      11.12670000      10.93550000       0.23853841       0.85833165       0.16862387
Na       6.27735000      10.20460000       3.87728000       0.22175550      -0.14180070       0.39954970
Na       0.33155400       9.01763000      18.73710000      -0.06547845      -0.05040090       0.26330596
Na       6.28049000      -0.09605200      16.13890000      -0.22659190       0.44638261       0.05104801
Na       0.91401500       8.42247000      12.98940000      -0.10180643       0.33902998       0.16313210
Na       0.40503000       6.04212000       5.73972000      -0.40400660       0.10483618       0.18996042
64
Lattice="6.6055 0.0 0.0 0.0 11.714 0.0 0.0 0.0 20.7378" Properties=species:S:1:pos:R:3:forces:R:3 energy=-528903.994594955 pbc="T T T"
P        1.17013000       1.77901000      13.09250000       0.61090548       0.94153757      -0.09507023
P        6.31781000      10.85010000       8.02423000       0.71290591      -0.29069738      -1.60390155
P        4.10043000       7.75072000      12.77400000       0.30107453      -0.83280325       0.76473227
P        2.25772000       5.26058000       7.68115000       0.81982318      -1.37947189      -0.23411820
P        4.05617000       1.61055000       3.21857000       1.55006504      -0.78668476       0.40503857
P        3.00291000      10.86870000      18.22880000       1.43546884      -1.14997139       0.15092240
P        0.86491600       7.68522000       2.25573000      -0.22592971       0.53494077       1.27459066
P        5.83998000       5.03575000      18.18120000      -0.72003958       0.58073656       0.74160107
S        1.24605000       4.14631000       6.31807000      -0.52525320      -0.49601424      -0.18839283
S        5.08871000       8.96980000      14.12960000       0.30515791       0.17969512      -0.15496285
S        3.95123000       6.01181000       6.93990000       0.96490356       0.57328951      -0.33675737
S        2.81497000       6.53476000      13.87500000      -0.26497323       0.16679493      -0.51461837
S        2.76904000       4.05092000       9.30074000      -0.21640455      -0.19965633       0.39984435
S        3.18533000       8.77540000      11.33360000      -0.24380324       0.46404440      -0.64315825
S        1.03703000       6.73288000       8.21211000      -1.12479921       1.27681220       0.86014787
S        5.46579000       6.42366000      11.90590000       0.29878135       0.03223458       0.04198756
S        2.92640000       9.13233000      17.09480000      -0.49670097       0.71563746      -0.61845713
S        4.51504000       2.65627000       4.91935000       0.26281675      -0.41636089       0.26636134
S        4.28540000       0.61281000      17.31470000      -0.84144491      -0.07024744       0.20895722
S        3.72129000      11.26630000       3.54779000      -0.41855042       0.85199109       0.07952154
S        3.94273000      10.16850000      19.90920000       0.26497651       0.68984903       0.53024565
S        2.45307000       2.47696000       2.38596000      -0.72063883       0.28414807      -1.03668525
S        1.22048000      -0.10006100      18.59350000      -1.25108822       0.75789037      -0.01405690
S        5.72615000       1.71306000       1.95483000       0.01363221       0.23332963      -0.08994001
S        0.28368100       3.46420000      18.98110000       0.43745781      -0.36499441      -0.03456857
S        1.93583000       8.37396000       3.88151000      -0.18147691      -0.66172995       0.12464391
S        4.51526000       5.63447000      19.70090000      -0.06994150      -0.56805839      -0.63847118
S        5.74661000       6.60483000       2.89319000       0.21905158       0.22865001      -0.08359887
S        4.75696000       4.36673000      16.54580000       0.53789974       0.01849169      -0.71546362
S        0.25376800       9.45458000       1.39367000      -0.19886382      -0.51671852      -0.79475429
S        0.32440200       6.63605000      17.54890000       0.33958430       0.10454433      -0.42507370
S        1.95123000       6.34906000       1.17674000       0.44374325      -0.19186835      -0.52545154
S        5.01315000       9.49251000       7.06431000       0.56141236      -0.20145775       0.43061958
S        1.91110000       3.14702000      14.58870000      -0.59103334      -0.75280442      -0.30781413
S        1.03837000      -0.31293700       6.44079000      -0.39085071      -0.08786840       0.43694009
S        0.44621600      11.81660000      14.03400000      -0.24349819      -0.26602183       0.17781491
S        0.84092800      10.16160000       9.56850000       0.02706481      -0.61108255       0.32336791
S       -0.18942900       2.73691000      11.88980000      -0.85205884       0.29535918       0.29589687
S        5.26377000       0.67720400       8.73592000      -1.04203835       1.05291285       0.21542561
S        2.56341000       1.29390000      11.66660000       0.61421378      -0.65663844       0.67697770
Na       2.30124000       8.82593000       6.59124000      -0.02495543      -0.07144998       0.30104230
Na       1.01782000       1.72797000       9.45039000       0.55876159       0.01097536      -0.21092735
Na       5.22222000       1.28391000      20.06040000       0.05156490      -0.23496500      -0.04050493
Na       2.01883000       7.73631000      19.50830000      -0.07955639       0.09115545      -0.07200054
Na       2.81992000       3.42811000      17.84870000      -0.44098132      -0.16453702       0.35573428
Na       4.33409000       7.05645000      16.11400000      -0.06541423       0.01726866       0.22344543
Na       3.93608000       0.14071400       6.27070000      -0.23418536       0.47385401       0.03624127
Na       5.61480000       4.30210000       8.77755000      -0.22923622       0.17621481      -0.50061720
Na       3.80858000       3.33517000      12.73730000       0.46636229       0.48227572      -0.09135876
Na       0.81720700       2.17081000       4.44262000      -0.40160227      -0.27315688       0.33953074
Na       4.62347000       7.69763000       0.66239700       0.01428831       0.39763817       0.21275893
Na       5.27586000       8.11405000       9.51834000      -0.06714726      -0.12771111      -0.29982768
Na       2.30986000      11.63210000       1.29814000      -0.31203572      -0.44713512      -0.26260371
Na       3.47228000       4.70755000       3.58012000      -0.18490797       0.60994852       0.16448344
Na       3.11134000      11.29680000      14.97880000      -0.00281305      -0.08968984      -0.17355521
Na       1.50609000       5.88533000      10.94490000       0.31684570       0.09750742      -0.03587056
Na      -0.27267400       4.51541000       0.97625400       0.03835688      -0.09212584       0.02010015
Na       0.01581000       5.57823000      14.36330000       0.20948329      -0.29067217       0.17609410
Na       5.73406000      11.43550000      11.41210000      -0.31195657       0.20666160      -0.00031001
Na       5.95099000       9.91933000       4.02864000       0.41160633      -0.07843967       0.20851574
Na       5.86885000      10.17840000      17.02360000       0.28240229      -0.42805138       0.18897339
Na      -0.05933600       1.94909000      16.50310000       0.21885107       0.13740423      -0.14932192
Na       0.96078700       8.82065000      12.80010000      -0.19229966       0.02131381       0.17707937
Na       6.72396000       6.43945000       5.43597000      -0.12298239       0.09397745       0.08257647
64
Lattice="6.6055 0.0 0.0 0.0 11.714 0.0 0.0 0.0 20.7378" Properties=species:S:1:pos:R:3:forces:R:3 energy=-528902.70880259 pbc="T T T"
P        1.19939000       1.43811000      13.28880000      -1.32409256       0.24353763      -0.92936881
P        5.99529000      10.93800000       7.72048000      -0.54797550       1.50075073       0.99202539
P        4.78069000       7.58228000      12.43250000      -2.15003554       0.13289572       0.69110138
P        2.77228000       4.77817000       8.09550000      -1.71866446       0.06852529      -0.86024059
P        3.87104000       1.68616000       2.50151000      -0.47753491       1.45170016       1.89093970
P        2.90582000      11.08930000      17.92560000       0.53788190       0.40202832       0.78022400
P        0.39955000       7.46235000       2.84192000       0.40038357      -0.23215827       1.04689030
P        6.02733000       5.15227000      18.19720000       1.46410178      -1.04668010      -1.33491675
S        1.38627000       3.75322000       6.99196000       0.10875395      -1.11025171      -0.60956058
S        6.16861000       8.14584000      13.90020000      -1.28109113      -0.56067551      -0.22986379
S        4.47521000       5.09686000       7.08330000       1.16940433      -0.28549161       0.19353242
S        2.97020000       6.65905000      13.51990000       1.68061686       0.72448789      -0.73376428
S        2.61998000       3.92821000       9.90661000       0.70906925      -0.39254717       1.25921923
S        3.79294000       9.06237000      11.17430000       0.74273903      -1.13892572       0.97146693
S        1.78246000       6.57061000       8.13339000       0.19745880       1.87914864       0.71776581
S        5.65203000       6.13388000      11.30590000       0.28201676      -0.00912040      -0.17690341
S        3.19729000       9.74473000      16.44360000      -0.03394573      -0.25216331      -1.18541514
S        3.31817000       3.62196000       3.39021000       0.06562524      -0.97997913      -0.79059476
S        3.58396000       1.32014000      17.41180000      -0.29822096      -0.63132398       0.34770225
S        3.12132000       0.22779700       3.85693000       0.20384645       0.45120122      -0.72870626
S        3.99792000      10.32200000      19.51870000       0.12599776      -0.04980496       0.29317874
S        3.00481000       1.62751000       0.68377200      -0.09314184      -0.36466646      -0.59921047
S        0.89603500      11.13520000      18.51420000      -0.07042370      -0.18920870      -0.35949608
S        5.90655000       1.56971000       2.48433000       0.25829279      -0.52910600      -0.75743232
S        0.10773400       3.53138000      19.40760000      -0.39687094       0.40903750      -0.00457864
S        1.78688000       8.81149000       3.72677000      -0.34598315      -0.71578918      -0.77084134
S        4.75947000       6.36638000      19.13770000      -0.56524303       0.84865488       0.29572652
S        0.23146900       5.73417000       4.08348000       0.10605882       0.83444917      -0.93317923
S        4.92678000       4.27069000      16.67950000      -0.18597553      -0.16620997      -0.35149040
S        5.21266000       8.39207000       2.78303000      -0.94151403       0.29001454       0.06465767
S        1.08257000       6.01279000      17.17270000      -0.85301657      -0.05092333       0.83858105
S        0.83990900       7.07056000       0.85829000       0.88085726      -0.60119884       0.24378974
S        4.83538000       9.69234000       6.62450000      -0.60772652      -0.80968883      -0.35374870
S        1.97888000       3.10192000      14.15240000       0.67153580      -0.24079433       0.38993105
S        0.58315100       0.23075000       6.40752000       0.19363192       0.29611347      -0.15356588
S       -0.02315600       0.24104600      14.44600000       0.43701077      -0.33546520       0.73120019
S        0.47131500       9.87828000       9.06673000       0.47993825      -0.62703933       0.17652987
S        6.34499000       2.06477000      11.92950000      -0.08503893       0.56733272      -0.42979516
S        4.91925000       0.70855000       8.88098000       0.14580655      -0.56397640      -1.01910487
S        2.50433000       0.24297800      12.24520000       0.03192958       0.05411546       0.60955430
Na       1.98686000       9.70341000       6.17441000       0.37885329      -0.01558932       0.51297886
Na       1.37509000       0.66969900       9.70606000       0.22164842       0.32787033      -0.09752004
Na       5.65800000       0.87197300      19.86310000      -0.53683108       0.25647718       0.49122518
Na       6.45438000       8.75305000      19.74110000      -0.12026670       0.00781670      -0.18735087
Na       2.55687000       3.91818000      18.67250000       0.84509148       0.11221912      -0.52489650
Na       4.02621000       6.91761000      16.25910000      -0.28123201      -0.02811949       0.01198278
Na       3.69691000       1.57322000       6.27541000      -0.06756112       0.28212214       0.10273402
Na       6.34321000       3.58573000       9.40521000      -0.03146127       0.06436726      -0.38906947
Na       4.29635000       4.03950000      12.48840000      -0.59424523      -0.07318595      -0.19359093
Na       0.80919800       2.59970000       4.36367000       0.31439963       0.24751641       0.25497786
Na       4.57095000       6.41518000       1.12444000      -0.08789615      -0.31533570       0.16488271
Na       4.81876000       7.90510000       8.79231000      -0.32113688      -0.11734481       0.32791189
Na       2.59625000      10.28320000       1.29725000       0.12343573       0.20201289       0.18431325
Na       2.79800000       5.92025000       4.95137000       0.14690906      -0.08156771       0.04177993
Na       4.05795000       1.11761000      14.69330000      -0.27510510      -0.02258575       0.07566841
Na       1.67621000       7.05266000      10.87380000       0.19645954      -0.22130426      -0.12117331
Na       1.48377000       3.96934000       0.99309400      -0.14355426       0.06940809       0.74504907
Na       0.25687500       5.23504000      14.21380000       0.11042799       0.25320663       0.30484175
Na       5.07919000      11.42930000      11.50850000       0.27035401      -0.06852398      -0.10879173
Na       5.98018000      10.61630000       4.06933000      -0.07769173       0.39976890      -0.03011130
Na       6.13223000       9.76245000      16.27010000       0.06647269       0.27653237       0.17531390
Na       0.15944200       2.03180000      17.06940000       0.09032828      -0.24183148      -0.40422995
Na       1.65034000       9.39734000      13.37310000       1.00606005       0.61039684      -0.07554977
Na       6.43213000       7.12370000       6.44221000      -0.14992102      -0.19513134      -0.48361485
64
Lattice="6.6055 0.0 0.0 0.0 11.714 0.0 0.0 0.0 20.7378" Properties=species:S:1:pos:R:3:forces:R:3 energy=-528903.209163675 pbc="T T T"
P        0.52684700       2.02680000      13.11780000      -1.10200659      -0.31808627       1.10018551
P        5.83309000      10.52300000       7.51557000       2.03505063       0.79120749      -0.89861198
P        4.61709000       7.87816000      12.84170000      -1.79917488       0.42673693       1.48994154
P        2.21193000       4.28602000       8.12120000      -0.52723649       1.92290887      -0.48580382
P        4.43510000       1.78120000       2.25152000       0.02954203      -0.71416881       0.24517230
P        2.45944000      10.93990000      17.87430000       1.04796439       1.63590644      -0.94744915
P        1.33490000       7.33441000       2.75855000       1.03029380       3.27474446      -0.52609656
P        5.96421000       5.16855000      18.33990000      -0.53743480       0.20049764      -0.93392463
S        0.29978400       3.81730000       7.61630000      -0.52052346      -0.53596982      -0.48669890
S        5.40765000       8.69903000      14.58990000      -0.00125108       0.24610350      -0.11318757
S        3.31030000       4.05561000       6.40230000       0.13135527       0.62157378      -0.13370892
S        3.01248000       6.54318000      13.51180000       0.86209044       0.92353986      -0.62940787
S        2.93169000       3.25944000       9.64364000       0.48899999      -0.64795447       0.97769727
S        3.93188000       9.39941000      11.62680000      -0.73214815      -0.19907878       0.37843689
S        1.93332000       6.37166000       8.65249000       0.57054421      -0.88450773       0.11875772
S        6.03746000       6.96462000      11.84640000       1.04046853      -1.21450068      -1.06726840
S        1.74277000       9.72086000      16.41630000      -0.89202773      -0.30540628      -0.30389854
S        5.56554000       3.11968000       3.41308000       0.03636936      -0.07897926      -0.20811307
S        3.39987000       0.91860100      16.86790000      -0.52571775      -0.11368943       0.12800182
S        3.32165000       0.63994200       3.50064000      -0.83385569      -0.09700565       1.63811450
S        4.08746000      10.06230000      18.66940000       0.70446244      -0.84082554       0.74115486
S        3.10136000       2.72954000       1.06747000      -0.36915819       0.69750914      -0.47567299
S        1.20632000      11.81110000      19.17900000      -0.60407436      -0.54379768       0.13480605
S        5.28402000       0.27223300       1.13580000       1.02506926       0.36745065      -0.18205101
S       -0.33267300       3.44744000      19.31580000       0.90964490      -0.81071379       0.66237209
S        0.75179700       8.94710000       1.43368000       0.20979421      -0.29648126      -0.03194422
S        4.93304000       6.41981000      19.59610000      -0.37483859       0.26502153       0.14914337
S        2.62527000       8.31420000       4.13521000       0.00582446      -0.89797232      -0.30278144
S        4.92613000       4.67280000      16.61300000       0.09245817       0.67838127       0.11097194
S        6.32317000       6.93915000       3.79047000      -1.47220998      -0.69630337       0.56587992
S        1.15676000       6.08700000      17.82320000       0.25583619      -0.17041404      -0.07050242
S        2.10909000       5.86279000       1.67536000       0.76565170      -0.82681349       0.05122339
S        4.89667000       8.88266000       6.87765000      -0.16540084      -1.16711637      -0.58558749
S        1.36885000       3.75647000      13.81380000       0.75609345       0.21407483      -0.24348900
S        0.03830800      11.61530000       5.84774000       0.23480663      -0.24855689       0.40032526
S        5.79851000       1.46060000      14.67520000       0.75573038      -0.17794468      -0.12982729
S        0.85273200      10.22840000       8.79304000      -0.79169437      -0.16558518       0.08443234
S        5.68022000       2.58124000      11.76790000       0.41793503      -0.09937450      -1.94743647
S        4.41886000       0.07308100       8.16151000      -0.53187841       1.23894749       1.54667464
S        1.77371000       0.56398200      12.40570000      -0.08321639      -0.05976762       0.00119556
Na       2.55242000      10.66590000       6.66861000      -0.23445338      -0.24884954      -0.47745125
Na       0.42741300       1.11381000       9.51856000       0.25359273       0.32937444      -0.00554405
Na       4.23142000       1.56469000      19.45430000       0.06285534      -0.27822284       0.14795676
Na       0.38850600       8.26924000      19.28440000      -0.06316650       0.24062536       0.21215794
Na       2.61828000       4.58751000      19.88610000      -0.02544778       0.36030214      -0.29308688
Na       3.63184000       7.55976000      16.67990000       0.12269111      -0.15115958       0.13430654
Na       5.12833000       2.24021000       6.35704000       0.04289281      -0.85238266      -0.30500448
Na       5.26376000       4.86592000       9.29942000      -0.16372878      -0.00615149       0.45162610
Na       4.26138000       3.90859000      13.37830000      -0.29980087       0.23162930       0.82058841
Na       1.43865000       2.86969000       4.83741000       0.03977822      -0.41930181      -0.30617061
Na       6.18378000       4.75049000       1.34751000      -0.13895143       0.16345445      -0.32594898
Na       4.14702000       8.04561000       9.25211000      -0.12941203       0.19347787       0.23841061
Na       3.35760000       8.92629000       0.35500100       0.08595490      -0.02851627       0.26702029
Na       4.08018000       5.91777000       4.30459000      -0.60517202      -0.18838423      -0.18425311
Na       3.74078000      11.38180000      14.47390000      -0.30427661      -0.19516561      -0.13068076
Na       1.77983000       5.23355000      11.34860000      -0.12785737       0.00655244       0.05914912
Na       1.57772000       0.45868200       1.51060000      -0.42288760      -0.28267270      -0.31129132
Na       0.25753100       6.47394000      15.11710000       0.00683656      -0.49618162       0.20779751
Na       4.44729000       0.22306900      11.13940000      -0.15874040       0.22029060      -0.18261443
Na       5.47235000      10.51440000       3.73898000      -0.07881541      -0.42589525      -0.35036764
Na       5.87013000      11.41140000      16.84560000       0.36611179      -0.16828051       0.20787294
Na       1.25086000       2.72603000      16.35480000      -0.15771488       0.04378309       0.32620190
Na       1.16797000       9.00324000      13.02580000       0.18198853       0.20308083      -0.20520077
Na       0.77528800       6.68547000       6.16285000       0.20558536       0.35500364       0.18350092
64
Lattice="6.6055 0.0 0.0 0.0 11.714 0.0 0.0 0.0 20.7378" Properties=species:S:1:pos:R:3:forces:R:3 energy=-528902.425098944 pbc="T T T"
P        0.91311500       1.63042000      12.19790000      -1.86808673       1.26091974       2.62253427
P        5.51383000      10.41930000       7.60572000      -0.16235020       3.04048464       0.44716592
P        5.26376000       7.39798000      12.90560000      -0.89466461       1.21208371       0.40118487
P        2.81239000       4.77459000       7.86121000      -0.00612339       2.32739764      -0.15769294
P        3.70339000       1.95446000       2.89674000       0.02692747      -1.58625465      -2.67581587
P        3.12007000      11.18130000      17.90510000       0.08496774      -0.87663268      -0.21723109
P        0.97058600       7.85283000       2.66210000       0.35410113       1.22682702       1.17760593
P        5.30373000       5.07195000      18.66200000       0.42740900      -2.37502666       1.55441968
S        1.38906000       3.85451000       6.77382000      -0.02453625      -0.68349664      -0.53243797
S        6.32771000       8.47314000      14.46830000      -1.00018397      -0.12648289      -0.70544715
S        4.23661000       6.01365000       6.79398000      -0.74372179      -1.77776917       0.09403002
S        3.99614000       6.02572000      13.80910000       0.31663629      -0.63405249       0.51730322
S        3.80419000       3.51686000       9.11490000       0.15278102      -0.23286387       0.12591279
S        3.98900000       8.53186000      11.62090000       0.43364013      -0.27822078       1.07644872
S        1.71698000       6.28140000       8.92022000       0.27014082      -0.49753972      -0.17440949
S        0.00819100       6.56973000      11.72810000       0.98402046      -0.75168526      -0.56059667
S        2.54978000       9.36693000      16.93690000      -0.15582961       0.83142592       0.75004900
S        4.71372000       3.59320000       3.38385000       0.60084277       1.36296153       1.11399670
S        2.41059000       1.07923000      16.70910000       0.02640296      -1.12091401       0.78848396
S        2.81113000       0.82968900       4.28910000      -0.38534442       0.36426353       1.01762082
S        5.22488000      11.28190000      18.02090000      -0.61943084       0.16560010       0.32394595
S        2.24829000       2.47732000       1.48908000       0.21497770       0.10580373       0.32260163
S        2.39777000      11.21520000      20.01220000       0.04895428      -0.07735516      -1.90308963