3/geom.data (written by ASE) 

424 	 atoms 
3  atom types
0.0      22.160821876382329  xlo xhi
0.0      22.161362956891235  ylo yhi
0.0      22.160702468624123  zlo zhi


Masses 

1            6.94000000    # Li_atom 
2           30.97376199    # P_atom 
3           32.06499999    # S_atom 

Atoms 

     1   0   2   0.0      11.195530102958148      11.918598415444857      16.106201464042474
     2   0   3   0.0      9.3804283310453727      12.885090381109261      15.949525443342564
     3   0   3   0.0      12.648405057960533      12.038917291427367      14.721576312926382
     4   0   3   0.0      12.098857997654223      12.471579010822104      17.899889556778557
     5   0   3   0.0      10.373728763833043      9.9878267010350488      15.817921670176306
     6   0   2   0.0      6.5135211015982559      13.098848998387563      4.6388220289067057
     7   0   3   0.0      8.1985544688799372      12.100341717473393      3.9644595688445592
     8   0   3   0.0       4.854694894238647      12.369282728165629      3.5393256280485721
     9   0   3   0.0      6.1566802113417305      12.561459602202667      6.6378891982210657
    10   0   3   0.0      6.8321030956647304      15.110926099431795      4.4173155753913065
    11   0   2   0.0      1.0933091279261682      17.549826342512759      17.019314590141658
    12   0   3   0.0    0.019628504876648391      17.889194097676995      18.677575511285028
    13   0   3   0.0     0.33111897923036504      17.070127061189982      15.150269569731492
    14   0   3   0.0      2.1170072877371311      19.285996718069295      16.957582096399662
    15   0   3   0.0      1.7342667694757685      15.911182303849898      18.143822406121899
    16   0   2   0.0      10.939338327417685      1.1068687670359916      12.587616620998224
    17   0   3   0.0      11.735642544207179      21.820386684366639      13.678312849721376
    18   0   3   0.0      11.518302315414196     0.83733906272944802      10.757586656979724
    19   0   3   0.0      8.9779038424175841       1.192001466076656      12.806456504439216
    20   0   3   0.0       12.33452561361932      2.2879009552115805       13.95636296001655
    21   0   2   0.0      1.0347157986426743      6.8739477953641597      17.282779633458063
    22   0   3   0.0    0.016943603910994118       8.595516187977978      16.967069588123127
    23   0   3   0.0      22.084539067576667      5.0515390416795745      17.236063421833759
    24   0   3   0.0      1.9518119579857056      6.5677331415268894      15.511528683954724
    25   0   3   0.0      1.7514887864895532      6.7584627455358444      19.190500377072169
    26   0   2   0.0       13.32034837121639      20.218703930779277     0.54382906149431554
    27   0   3   0.0      11.239793447277801      21.025423996057679     0.87288337009668937
    28   0   3   0.0      13.355481523457486       18.24914780939795      22.102215854996277
    29   0   3   0.0      13.775035596470149    0.035457961713742638    0.095715434277732936
    30   0   3   0.0      14.730638185117776       19.85434131352708        2.04062925291568
    31   0   2   0.0       16.27620355411764      9.9985097714753088      3.5965045772916726
    32   0   3   0.0      16.470501701835587      9.0259976682852159      1.7918275433829185
    33   0   3   0.0      16.683542434861511       11.88618497657067      3.0260492708040885
    34   0   3   0.0      14.363932550650748      10.811666470206408      4.6330673764739334
    35   0   3   0.0      17.328203019611536      8.7986752908482089      4.9215841483072147
    36   0   2   0.0      4.8528550628166052     0.73887387058616172      21.610744247422531
    37   0   3   0.0      4.5756723782137829        21.0741686377973    0.070086080874883896
    38   0   3   0.0      7.0549488250453267     0.41741482990661111       20.36543581620958
    39   0   3   0.0      3.0926378628787861      1.6565029878152027      21.768516054190176
    40   0   3   0.0       6.509856829200328      1.7299100192143102    0.030923148857607243
    41   0   2   0.0      19.806509162084861      15.176834548126546      10.277971681317108
    42   0   3   0.0      21.805626116028272      15.674200440963691      10.460385279620462
    43   0   3   0.0      18.219813999010391      16.319358477367004      9.4488881926409451
    44   0   3   0.0      19.607106232017209      13.366012038011581       9.382639596926504
    45   0   3   0.0      19.100113794643207      15.027282174146082      12.171784424009548
    46   0   2   0.0      8.8021752130942907      6.1929302922002947      5.5038349007249892
    47   0   3   0.0       6.884900553203229      5.5933578197056271      6.1442235799818832
    48   0   3   0.0      8.9217953813710249      5.8700284919157424      3.5422380098029365
    49   0   3   0.0      9.0659986373843378      8.1691594519275803      6.0400076338507489
    50   0   3   0.0      10.039621433494714      5.0184268562645364      6.5628682477412426
    51   0   2   0.0      21.483052933987953      15.421747263580128      2.7573810438999433
    52   0   3   0.0     0.44740712651536529      13.797219856902002      2.4665257404458809
    53   0   3   0.0      21.540225873502596      16.794877012594149      1.3141405484660789
    54   0   3   0.0       20.25258559337648      13.604159616613307      1.5823756931137454
    55   0   3   0.0      22.001263056430997      16.188640966386945      4.5643245407195439
    56   0   2   0.0      7.6526041855878644      20.549607347545944      6.1214095015604792
    57   0   3   0.0      8.2885437542603047      21.654700202995947      7.6865063256078674
    58   0   3   0.0      5.6745775159163001      21.193215804205533      6.2261463261148062
    59   0   3   0.0      8.5908453803772797      20.726845826208319      4.3115410204318749
    60   0   3   0.0      7.6627607027392921      18.530296696171661      6.3807298060767561
    61   0   2   0.0      14.522909839518308      7.2556902349938772      12.088604362769539
    62   0   3   0.0      14.123036862491901      8.1633292375889628      13.979009874055935
    63   0   3   0.0      16.122298067441161      6.0088604484357804      12.331296579096444
    64   0   3   0.0      12.818192092035975      6.4370258501127413      11.371240380385387
    65   0   3   0.0      15.205400681974721      8.7443895930447049      10.761644844245842
    66   0   2   0.0      6.5884093615768773      15.815611089218585      12.443595849693525
    67   0   3   0.0      8.4593706545053031      15.138464468277569      11.911641155012413
    68   0   3   0.0      6.1267161718790435      14.947688127027989      14.191525493401237
    69   0   3   0.0      6.3528234943594413      17.848438111071914       12.76475880998338
    70   0   3   0.0      5.3292388563446718      15.503642831343715      10.857040000445076
    71   0   2   0.0      17.494326691686002      13.110361477229549      18.909289646147283
    72   0   3   0.0      15.605406768016476      12.330613169738141      18.665190784953481
    73   0   3   0.0      17.323178625067669      14.379673941916327      20.551318599554346
    74   0   3   0.0      19.092892356687905      11.878031208017084       19.18397323603465
    75   0   3   0.0      17.735973815472644      14.335883679584381      17.313469457694797
    76   0   2   0.0      3.4730166613328821      22.060918524311887      12.158298141478356
    77   0   3   0.0      1.5321680263192083      22.107465961520401      11.777261905334216
    78   0   3   0.0      4.9638251635087096      1.1954388321666589      12.631296543256232
    79   0   3   0.0      3.7677314976663494       21.39345811614745      14.092189707656509
    80   0   3   0.0      4.5272879904957684      22.079409950391586      10.294927184130449
    81   0   2   0.0      19.479793504815017      4.2719961441102905     0.29484173261217628
    82   0   3   0.0      21.148430373825803      3.7850621805767046      21.447231148212616
    83   0   3   0.0      17.723658721695394      3.4325719601683273      22.134308120898549
    84   0   3   0.0       20.69243476222103      3.3437964982850086      1.8628474883143082
    85   0   3   0.0      19.478195118016014      6.2899558673181977     0.39301299802136258
    86   0   2   0.0      14.571095484541502      2.1665493395521853      5.9468121089792421
    87   0   3   0.0      12.603713688193006      1.6698825482636523      5.9991570901819289
    88   0   3   0.0      14.812836985624653      2.9811298844101439      3.9412208231447754
    89   0   3   0.0      15.211255203692165      3.4153188725435828      7.4744402680550177
    90   0   3   0.0      15.753578140153452     0.44494457454419611      5.9147936700140997
    91   0   2   0.0       6.597756797105335      6.3681868962053878      11.934675850278763
    92   0   3   0.0      6.3620609538139083      4.5114089513606643      11.002662918238277
    93   0   3   0.0      5.0160756586853408      7.4598791075460227      11.545363565724394
    94   0   3   0.0       7.503395737173066      6.4716838727995256      13.844488855909258
    95   0   3   0.0      8.2555224401445866      7.2420097864984028      10.882363603829678
    96   0   2   0.0      14.144611883694964      6.9069980086949503      20.595243755827557
    97   0   3   0.0      13.216039309015807       6.422890839420667      18.789681672339864
    98   0   3   0.0      16.018982055026147      6.0516253618132287      20.728049023841404
    99   0   3   0.0      14.100253381219632      8.9365469013957526      20.737817115178277
   100   0   3   0.0      13.027519078716193      5.9583166563962413      21.981655422852445
   101   0   2   0.0      17.123574744590449      22.070531381834513      13.610237916340235
   102   0   3   0.0      15.166047099218837      22.073010676794574      13.355114625538222
   103   0   3   0.0      18.023306450007514      1.5663073723348317      14.247931712358314
   104   0   3   0.0       17.54513684523819      21.674111314517916        15.5915962816398
   105   0   3   0.0      18.503722376066268      21.946817654469815      12.142624575206904
   106   0   2   0.0      13.783634130529169      15.284079520566138      6.8507748177967622
   107   0   3   0.0      15.146754329917943      13.989855046013199      6.1727698470144379
   108   0   3   0.0      12.052285092546215      14.148269105155375      7.1385463398053215
   109   0   3   0.0      15.040534050770249      16.202890915692858      8.3669555199759102
   110   0   3   0.0      13.808419059530276      16.780708901953158       5.420330068144656
   111   0   2   0.0      20.042880771430028      9.1051388998777245      10.121674342046825
   112   0   3   0.0      19.461581901906801      8.2635617825763035       11.88174144284188
   113   0   3   0.0      18.779402112392248      10.568582822754463      9.5692519368306748
   114   0   3   0.0      22.043840311093739      9.5171332762934906      10.360754519795011
   115   0   3   0.0      19.766462440455584      7.9194957903364553      8.4241316573363481
   116   0   2   0.0      6.6452996887165972      12.952756318218208      19.613008839478475
   117   0   3   0.0      7.6912150571536682      14.806777143334287      19.498988527317945
   118   0   3   0.0       7.962020543993197       11.38843057923205      19.326470139594512
   119   0   3   0.0      5.8524020775052028      13.045551734744258      21.565429794211525
   120   0   3   0.0      5.2630325291834978      12.780084204470748      18.120509689885477
   121   0   2   0.0     0.71762596457794803      9.0132505025806537     0.56639857342687561
   122   0   3   0.0     0.21796160991739777      7.1668768858824086   0.0081223531697051342
   123   0   3   0.0      21.648943588294539       10.46189611460448      22.104867810907205
   124   0   3   0.0      1.2992371274294208      9.8944707787439548      2.4355201379689846
   125   0   3   0.0      2.4356550441298883      9.9343999231621805      22.130022543401768
   126   0   2   0.0      3.1085022308539534      7.5558953689537542       7.042754721923683
   127   0   3   0.0      3.2670038713914864      8.8813476156036728      5.4333264638822243
   128   0   3   0.0      3.6458603860372238      5.6340487052657409      6.5248262780273372
   129   0   3   0.0      4.3499635220711861      8.2488539733717232      8.5653426878953116
   130   0   3   0.0      1.2282326815976408      7.4626481193654666      7.9149795813255048
   131   0   2   0.0      9.2692018407087442      4.7221315930692995      19.158927890502618
   132   0   3   0.0      7.9487665779764543      4.8003659693378822       17.60232614408141
   133   0   3   0.0      8.2672541115421794      5.6422662106173522       20.66119463892888
   134   0   3   0.0      9.7101785799790061      3.0029975137346061      20.073554370529287
   135   0   3   0.0      10.888916057041488      5.6680297321963629      18.370707754607153
   136   0   2   0.0      14.222172622027037      16.799296211731711      15.542599418224201
   137   0   3   0.0       13.68068264569408      17.825416615861961      13.903775539880456
   138   0   3   0.0      15.013756905816503      18.053986460770545      16.945768821117149
   139   0   3   0.0      12.660275710543463      15.668258981862927      16.219204295462458
   140   0   3   0.0       15.75475733911761      15.425619904864412      15.178892154193214
   141   0   2   0.0      11.604495781991364      15.007789852527981      1.2720728520497371
   142   0   3   0.0      10.025075214979607      13.806862993907853      1.0448527275010993
   143   0   3   0.0      12.365652343670819      14.991146459572064      3.1960105819946509
   144   0   3   0.0      13.180935107282536      14.503190532427372   0.0061399651681112166
   145   0   3   0.0      10.963056776340245      16.930801325855136      1.0338294684818685
   146   0   2   0.0      20.239559646556987      19.983419685089203     0.56260755069074053
   147   0   3   0.0      21.993699782311015      19.040085454129493      22.132421597302177
   148   0   3   0.0       20.46350993206654       19.73102405658776      2.6028103612556359
   149   0   3   0.0      20.300731079632719      21.906926008968266    0.069776471394308037
   150   0   3   0.0      18.353226537200989      19.332621386284391   -0.002820076979286856
   151   0   2   0.0      3.9543477056569043      11.140400762422583      13.247259957146294
   152   0   3   0.0      2.1081124026398603      11.984641897700664      12.985505272116272
   153   0   3   0.0      4.9427000037610913      11.727990986268928      14.928871378264731
   154   0   3   0.0      3.8933781650098407      9.1384682952089449      13.562597829340447
   155   0   3   0.0      4.7539654149123924      11.754625559892347      11.478823697262706
   156   0   2   0.0      12.474885716711022      19.676303945363692      8.6670969736015788
   157   0   3   0.0      10.440045236170993      19.407977894258799      8.8538038204826623
   158   0   3   0.0      13.740363039523992      18.464562329644785      9.9070631331540646
   159   0   3   0.0      13.260459734051009      19.728405003067092      6.7938785016824994
   160   0   3   0.0      12.995961033681054       21.28005078542941      9.8138342966159353
   161   0   2   0.0      4.6983801806385479        5.76712498906367      1.3855560507338165
   162   0   3   0.0      4.5436511490902607      4.3908945416139762      21.966289933897961
   163   0   3   0.0      6.2844917663556208      7.0232053656527818      1.1505779654333019
   164   0   3   0.0      2.8603649000221232      6.5863005845248166      1.5881453051113279
   165   0   3   0.0       5.076792388322124      3.9327411826805947      2.4787159526173479
   166   0   2   0.0      3.3618864502919599      16.975596594805172      6.0178839400107389
   167   0   3   0.0       3.083105352536935       17.67022416672069      4.0171916712909725
   168   0   3   0.0      3.0081676905555179      14.978572348538355      6.3370377735974479
   169   0   3   0.0      5.3096623363108204      17.305159585634105      6.5520400675743717
   170   0   3   0.0      2.1898245631912818       18.18934725679436      7.1609907956951577
   171   0   2   0.0       17.31513173686271      8.4474990701438735      16.546041924188845
   172   0   3   0.0      17.510234119365951      6.8186602876801583       15.28684775740772
   173   0   3   0.0      16.533008175423866      10.027402378113775      15.593266815358936
   174   0   3   0.0      16.135675252840628      7.8694126147558476      18.100332643514125
   175   0   3   0.0      19.079123778151359      9.0225528825548125      17.343208891348233
   176   0   2   0.0      19.558305144799537      3.7798334630331696      11.432804284444453
   177   0   3   0.0       18.28447548350611      3.5366628762632422      9.6672988953940102
   178   0   3   0.0      20.843097541294089      2.2498524070302701      11.548852042347081
   179   0   3   0.0      20.644165049094479      5.5409512442252753      11.227284948234447
   180   0   3   0.0      18.379279201183742      4.0692875955877099      13.064021045248301
   181   0   2   0.0      4.8873654721188826       3.309319188197791      16.214187686222338
   182   0   3   0.0      4.3017832362877284        2.11263944428898      14.645176622951126
   183   0   3   0.0      7.0046721726624375      2.9118742655967638       16.07096137163834
   184   0   3   0.0      4.0588573285093874      5.1610208309053744      15.941623233368558
   185   0   3   0.0      4.3106661182392347      2.6580032756428245      17.999112463751185
   186   0   2   0.0       9.718270348279006      10.518669141035401      10.245766666642227
   187   0   3   0.0      8.4098561998150405      11.557431140312845       8.967775288313943
   188   0   3   0.0      10.328762008472122      11.497228843091602      11.929426564526194
   189   0   3   0.0      8.4874320152953704      9.1296154955870374      11.562846150330486
   190   0   3   0.0      11.183646095403937      9.6195061180974957      9.1877685183743321
   191   0   2   0.0      1.0881432225287579      12.631250839289322      17.177655499694762
   192   0   3   0.0     0.13097022214765441      11.408916277358639      15.919417952570713
   193   0   3   0.0    0.043537636169970542      13.246476997473028      18.808346597969027
   194   0   3   0.0       2.757678377684496      11.607753932325394      17.854982848004703
   195   0   3   0.0      1.8052140517481443      14.339548262244247      16.221796764948383
   196   0   2   0.0      10.261919900762148      9.1317243520997096     0.69911180955694063
   197   0   3   0.0      10.996725980880422      10.889571991692572      22.127856539340232
   198   0   3   0.0       11.46849876451987      9.3377928665548744      2.3870407943306007
   199   0   3   0.0      8.2540309585877178      9.1653871858996041      1.1156161269755771
   200   0   3   0.0      10.757326709236244      7.3840136736513236   0.0037609133259334112
   201   0   2   0.0      16.336904098548978      1.9826239353150952      18.352087776562417
   202   0   3   0.0        15.8652416040796      0.6708387600838851      16.879814059983829
   203   0   3   0.0      16.980451533298496      1.3570604733491145      20.171977336915091
   204   0   3   0.0      17.863465364869953      3.1231945579074787      17.651389306973229
   205   0   3   0.0      14.405074148171899       2.712223954864315      18.273234075725181
   206   0   2   0.0      7.7591831768595059      18.522045939775332      15.941232579988077
   207   0   3   0.0      8.6242452638681009      19.646006025083221      14.306113855238944
   208   0   3   0.0      8.6633645371270358      18.981207386335061      17.693797763855446
   209   0   3   0.0      5.7960581378972806      18.957163554481848      16.065437029544192
   210   0   3   0.0      8.2245101186566245      16.550016461661134      15.622407530644693
   211   0   2   0.0       11.56957947575459       20.27600789408222      18.468851067748648
   212   0   3   0.0      11.912442345853444      19.015125770867449      16.966162974156653
   213   0   3   0.0      13.354537416856864      20.997115805723549      19.163087119360622
   214   0   3   0.0      10.551031929255531      21.921017158723188      17.602642891388719
   215   0   3   0.0      10.566852334898877      19.310176943210738      19.975389765926003
   216   0   2   0.0      20.314345646705078      20.047815624992012      8.8412103382552516
   217   0   3   0.0      19.429372460581874      18.244769424207551      9.3855206409125689
   218   0   3   0.0    0.067415250839269941      19.622661221913475      9.3628719772090996
   219   0   3   0.0      19.968925781653741      20.918745850663939       7.024078261524541
   220   0   3   0.0      19.571315397207936      21.369153902523628      10.180335892183082
   221   0   2   0.0      10.934784705827049       3.958622322581558       9.242125308721155
   222   0   3   0.0      12.076543606293075      4.4211346792723383      7.6516607119280868
   223   0   3   0.0      10.097567093023727      5.6360491007112383      10.004452422525709
   224   0   3   0.0      9.4823077581144162      2.6012900727918997      8.7929039530382394
   225   0   3   0.0      12.581000894766106      3.3287867901227615      10.309454027163646
   226   0   2   0.0      7.9300239493322833      19.593936188172165      1.2779442329086088
   227   0   3   0.0      6.8989931626223315      17.834167904829027      1.3807374224074067
   228   0   3   0.0      10.326142244683346      19.757584928421281      2.0674330522764901
   229   0   3   0.0      9.2809781510700891      19.143501886556201      22.056281690510328
   230   0   3   0.0      7.2161218927331507      21.342487889514402     0.90477438060495052
   231   0   2   0.0     0.46468555995534122      1.7954402677954082      15.850484060386192
   232   0   3   0.0       1.695774810862775      3.2746703613553603      15.402463976618593
   233   0   3   0.0      22.134588251557179      3.0782365395432714      17.769003541266709
   234   0   3   0.0    0.090796529223323971     0.95296717517483598      14.116491425242209
   235   0   3   0.0     0.58579677009279751     0.57423680100730634      17.492021399200162
   236   0   2   0.0      20.115301340092302      12.865616421213037      6.5687622322298855
   237   0   3   0.0      18.356682197772948      11.925070154750269       6.769834420715668
   238   0   3   0.0       21.63658929460258      11.607553478842471       7.017300342074587
   239   0   3   0.0      20.339389424245898      13.545340248183178      4.6886013484502174
   240   0   3   0.0      20.322701041167743      14.891457988073673      7.2861186035789496
   241   0   2   0.0      13.275667284403809      15.490507648852461      11.364155921459687
   242   0   3   0.0      15.058629458071799      15.372983780593213      10.245830529572233
   243   0   3   0.0      12.350081858098044      17.298959697497438      10.901223968229406
   244   0   3   0.0      12.002429189023646      13.932035813963106      11.479916668102403
   245   0   3   0.0      14.865089465745699      15.687139108233945       12.69538222728524
   246   0   2   0.0      11.473455172860586      3.8247516814308864      2.7496736079837052
   247   0   3   0.0      10.055479129099407      2.7453820540362268      3.7951447735654784
   248   0   3   0.0      11.935670282634263      2.7715833532950054      1.1137546454905807
   249   0   3   0.0      11.306507595481584      5.7967817025243784      2.3569118718432964
   250   0   3   0.0      13.226645033138254      4.4865562892758559      4.0148605326452502
   251   0   2   0.0      19.226125692635378      19.975585878576172      17.518686572993651
   252   0   3   0.0      18.444229828039528       18.17033753557487      18.050855299027678
   253   0   3   0.0      19.836929444173816      19.833628598693469      15.542637730266639
   254   0   3   0.0      17.733684988168683      21.247746275772872      18.049102514306487
   255   0   3   0.0      20.774141718846231      20.528425247772837      18.647160010646502
   256   0   2   0.0      19.578626540989664       12.90193390835401      14.574975555780259
   257   0   3   0.0      21.097961268711177      12.431144851090359      13.307713816602773
   258   0   3   0.0      19.477166215770751      14.997822749734183      14.703454960298771
   259   0   3   0.0      18.058770527969962      11.889011848717857       13.61842515474441
   260   0   3   0.0      19.727158627119877      12.268871645169584      16.451160818584523
   261   0   2   0.0      4.0144862858462105     0.33215917977377069      4.0432417532169049
   262   0   3   0.0      6.1529797523960275      22.147864562351465      3.9718547496794336
   263   0   3   0.0      5.0703210419255749      1.1918336015704392      2.4340025671905403
   264   0   3   0.0      2.0938908756607084      22.142121151795809      3.4720466371394805
   265   0   3   0.0      4.1023591626730864      1.4285758382650902      5.7889976993843097
   266   0   1   0.0    0.026084425473542772      1.2839638068115384      6.6096747063869286
   267   0   1   0.0     0.36049069719833593      5.2186517795831664      1.7026260508456339
   268   0   1   0.0     0.54491782518183818      5.8239956624171976      6.1190992223160467
   269   0   1   0.0     0.62694586145653786      5.7058108764328477      9.9975126466860029
   270   0   1   0.0     0.96749113053948654      10.049180898116772      18.810593734328602
   271   0   1   0.0      1.7409832013218656      10.733009838843859       9.293871374178396
   272   0   1   0.0     0.62303435175583499      14.375854204153097      6.7848117072498342
   273   0   1   0.0     0.58253008457578659      13.949894555354472      14.170635912622197
   274   0   1   0.0      21.991842707532324      16.598258486872805      12.780363481864965
   275   0   1   0.0     0.74289948301443887      17.153566710422069      8.8910884597986612
   276   0   1   0.0      1.2380990846971944      19.313027834737746      2.5843140724559723
   277   0   1   0.0      22.137930399091708      20.626419966840061       16.38566895764043
   278   0   1   0.0      3.4013305415666348     0.26379226907945091      7.8570659158288425
   279   0   1   0.0      2.7364581748856622      2.5934624570249079      2.6017336863594971
   280   0   1   0.0      1.6606160468954383       2.243796074839314      10.846809655406551
   281   0   1   0.0      2.2525570494890825      5.1073039221145793      21.125651300008254
   282   0   1   0.0      2.5922281653779708      8.0550085110076068      11.616131679533677
   283   0   1   0.0      2.2062010331863626      12.549947645424018      1.4017312234057708
   284   0   1   0.0      3.0045274679632916      12.261268464939899      5.4357122780503122
   285   0   1   0.0      2.8024285986050894      16.398982225455331      1.6796852002795266
   286   0   1   0.0      2.5764499455211722      19.671463021149769      9.2417459546914298
   287   0   1   0.0      1.7287057797469942      19.879083935263857      13.720334654106702
   288   0   1   0.0      2.2979090119957641      20.661354131265611      21.314725406644371
   289   0   1   0.0      3.6078200832910134     0.81642415473633723      19.282735428116972
   290   0   1   0.0      3.4165480885872332      4.5398197020250262      13.530469506405671
   291   0   1   0.0      4.9228226459078632      5.3770605518640266      4.4110586614375578
   292   0   1   0.0       4.875350731999001      5.6832191347670138      9.0571482403728929
   293   0   1   0.0      3.5773891435359375      8.3196599814730821      20.080548193973542
   294   0   1   0.0      3.4514246274320559      9.6719297528343624       16.23805676457885
   295   0   1   0.0      4.9172830784629973      10.269097422730884       7.096872532203605
   296   0   1   0.0      3.7855879997154522      11.756278792608526      21.277939559953968
   297   0   1   0.0      4.2430122029092141      13.591755819995065      9.9531725255021239
   298   0   1   0.0      3.7322226851990798      14.409713683300428      14.534904711675807
   299   0   1   0.0      4.0846548093685815      17.597649605763714      11.415716137469746
   300   0   1   0.0      3.3478760622074333      17.471797038618899      19.332530356756536
   301   0   1   0.0      6.5667574127538026      1.4586100771681163      7.1595506215939846
   302   0   1   0.0      5.6740255663466783      2.2313992615775575      10.431117232468718
   303   0   1   0.0      6.4951532807101264      3.1171785774003355      19.902247187334691
   304   0   1   0.0      6.5247872182302746      4.1476049670554271      13.893559447610629
   305   0   1   0.0      6.1008244125370767      6.3138114962234662      16.415340670471124
   306   0   1   0.0      5.9621849963832796      6.2023493335871196      20.722069919449051
   307   0   1   0.0      6.0711208389377207      7.9414477754298849      5.7193618118276746
   308   0   1   0.0      6.1680004429089479        10.0003509818137      3.3529425661773615
   309   0   1   0.0       6.853629488472234      10.867923759875449      10.938056411069248
   310   0   1   0.0       6.858254864579326      13.110348125640236      15.659478117406524
   311   0   1   0.0       5.683862359486457      14.795827044023442      2.0940003625665788
   312   0   1   0.0      5.4546998860366411      15.332892347611653      18.207937797910326
   313   0   1   0.0      5.6850989738137159      18.098105004694109      3.8238566757317436
   314   0   1   0.0      6.7430409275384138      16.978631202035043      21.183944644550039
   315   0   1   0.0      5.8248303732535938      20.082638141485933      9.7911136543626345
   316   0   1   0.0      6.1451438011419199      20.522851659546298       14.07805976306155
   317   0   1   0.0       8.376325319526023      1.2084406537427681      1.9768174013506656
   318   0   1   0.0       7.018125090790349      1.3020090606192274      14.160721734471178
   319   0   1   0.0      6.8642982009970064      0.5545434412502408      17.390949908294196