LAMMPS (15 Sep 2022)
  using 1 OpenMP thread(s) per MPI task
# /home/carsten/Documents/PhD/LPS/MD_GAP/polarise/MD_GAP_CS.in (written by LAMMPScs 2.1 on Mon Jun 17 10:42:15 2019)

# ------------------------------ INITIALIZATION -------------------------------
units      metal
dimension  3
boundary   p p p
atom_style full
newton     on off
# ----------------------------- ATOM DEFINITION -------------------------------
read_data geom.data
Reading data file ...
  orthogonal box = (0 0 0) to (22.160822 22.161363 22.160702)
  4 by 6 by 3 MPI processor grid
  reading atoms ...
  424 atoms
Finding 1-2 1-3 1-4 neighbors ...
  special bond factors lj:    0        0        0       
  special bond factors coul:  0        0        0       
     0 = max # of 1-2 neighbors
     0 = max # of 1-3 neighbors
     0 = max # of 1-4 neighbors
     1 = max # of special neighbors
  special bonds CPU = 0.003 seconds
  read_data CPU = 0.031 seconds
timer timeout 24:00:00 every 100
New timer settings: style=normal  mode=nosync  timeout=00:00:00
# ------------------------------ ATOM GROUPING --------------------------------
group Li_atoms type 1
159 atoms in group Li_atoms
group P_atoms type 2
53 atoms in group P_atoms
group S_atoms type 3
212 atoms in group S_atoms

neighbor 2.0 bin
comm_modify vel yes

# ------------------------- GAP Potential ---------------------------


pair_style quip
pair_coeff      * * /u/thuss/templates/gaps/naps/gp_2b_soap.xml "IP GAP label=GAP_2023_2_8_0_13_56_52_159" 11 15 16

reset_timestep 0
# ------------------------ DEFINE COMPUTES --------------------------

compute thermo_press_lmp all pressure thermo_temp
compute ke_tech all ke
compute epot_tech all pe
compute vacf_p P_atoms vacf
compute vacf_s S_atoms vacf
compute msd_li Li_atoms msd com yes
variable etotal_tech equal c_ke_tech+c_epot_tech
variable temp_phys equal c_thermo_temp
variable ke_phys equal ke
variable etot_phys equal etotal
variable vol_v equal vol
variable T equal "500"

# ---------------------------------- TIMESTEP ------------------------------------
timestep 0.002

# ------------------------ RUNS ---------------------------
dump equiatoms all atom 500 geom.dump
dump_modify equiatoms scale no

thermo 100 # every 0.1
thermo_style custom step etotal pe ke temp press

fix therm_equ all nvt temp 300 600 1.0
run 50000
Neighbor list info ...
  update: every = 1 steps, delay = 0 steps, check = yes
  max neighbors/atom: 2000, page size: 100000
  master list distance cutoff = 8
  ghost atom cutoff = 8
  binsize = 4, bins = 6 6 6
  1 neighbor lists, perpetual/occasional/extra = 1 0 0
  (1) pair quip, perpetual
      attributes: full, newton on
      pair build: full/bin
      stencil: full/bin/3d
      bin: standard
Per MPI rank memory allocation (min/avg/max) = 8.049 | 8.051 | 8.052 Mbytes
   Step         TotEng         PotEng         KinEng          Temp          Press     
         0  -3503796.5     -3503796.5      0              0              46859.9      
       100  -3503803       -3503888.3      85.249119      1559.1392      14344.741    
       200  -3503815.1     -3503894.5      79.390305      1451.9861      6561.5542    
       300  -3503828.9     -3503903.3      74.351583      1359.8319      10756.004    
       400  -3503842.7     -3503909.1      66.404985      1214.4948      393.52786    
       500  -3503855.3     -3503916.4      61.064076      1116.8138      3280.2253    
       600  -3503867.1     -3503924.1      57.039313      1043.2041      3587.2983    
       700  -3503877.6     -3503929.9      52.263996      955.8673       4460.461     
       800  -3503887.2     -3503935.7      48.498307      886.99582      932.92699    
       900  -3503895.8     -3503939.7      43.872653      802.39624      1705.3082    
      1000  -3503903.5     -3503944.5      41.022513      750.26944     -1917.2265    
      1100  -3503910.6     -3503949.4      38.827992      710.13338      86.19078     
      1200  -3503916.9     -3503952.7      35.867247      655.98369     -1418.5578    
      1300  -3503922.4     -3503955.5      33.144853      606.19325     -1876.9858    
      1400  -3503927.5     -3503959.2      31.728217      580.28408     -3409.5273    
      1500  -3503932.1     -3503960        27.932159      510.85717     -3173.3618    
      1600  -3503936.2     -3503963.8      27.565893      504.15846     -3394.6998    
      1700  -3503939.8     -3503966.7      26.859378      491.23685     -2126.2759    
      1800  -3503943.2     -3503966.4      23.23614       424.97069     -3159.926     
      1900  -3503946.1     -3503969.3      23.163093      423.63472     -3475.1138    
      2000  -3503948.8     -3503971.1      22.33709       408.52778     -945.12825    
      2100  -3503951.2     -3503972.7      21.442178      392.16054     -4409.1403    
      2200  -3503953.4     -3503972.9      19.453403      355.78741     -5909.4835    
      2300  -3503955.3     -3503974.2      18.973951      347.01862     -4421.7617    
      2400  -3503956.9     -3503975.1      18.185822      332.60436     -4563.7305    
      2500  -3503958.4     -3503975.9      17.526146      320.53939     -4493.6409    
      2600  -3503959.7     -3503976.6      16.959554      310.17687     -5678.8615    
      2700  -3503960.8     -3503977.6      16.786354      307.00919     -5721.9079    
      2800  -3503961.8     -3503977.9      16.144167      295.2641      -4937.7288    
      2900  -3503962.6     -3503978.9      16.346994      298.97363     -5469.2216    
      3000  -3503963.2     -3503978.4      15.242373      278.771       -7185.3742    
      3100  -3503963.6     -3503978.8      15.143418      276.96118     -7139.9261    
      3200  -3503963.9     -3503978.7      14.766644      270.07029     -7492.7992    
      3300  -3503964       -3503979.2      15.19817       277.96255     -6442.0385    
      3400  -3503963.9     -3503979.1      15.181977      277.6664      -7969.3689    
      3500  -3503963.7     -3503979.5      15.811804      289.18543     -5668.6123    
      3600  -3503963.3     -3503979.3      15.93457       291.43073     -6145.6358    
      3700  -3503962.8     -3503978.9      16.152987      295.4254      -6746.6443    
      3800  -3503962.1     -3503979.1      16.948476      309.97427     -5200.6947    
      3900  -3503961.4     -3503976.8      15.384548      281.37126     -3729.0976    
      4000  -3503960.6     -3503976.7      16.180638      295.93112     -7068.4918    
      4100  -3503959.7     -3503978        18.2703        334.14939     -3313.9098    
      4200  -3503958.8     -3503977.3      18.509172      338.51817     -5525.2219    
      4300  -3503958       -3503976        17.981846      328.87378     -6526.8448    
      4400  -3503957.2     -3503975.8      18.648344      341.06352     -3286.2313    
      4500  -3503956.5     -3503975.2      18.768629      343.26344     -6284.4109    
      4600  -3503955.9     -3503975.1      19.274439      352.51431     -4254.88      
      4700  -3503955.4     -3503975.8      20.431892      373.68321     -3065.5591    
      4800  -3503955       -3503974.2      19.140558      350.06573     -3305.9424    
      4900  -3503954.8     -3503974.1      19.339472      353.7037      -5296.9706    
      5000  -3503954.7     -3503974.2      19.438816      355.52063     -4332.2749    
      5100  -3503954.8     -3503974.2      19.333857      353.60102     -4974.2854    
      5200  -3503955.1     -3503975.6      20.504087      375.0036      -3609.2449    
      5300  -3503955.5     -3503975.2      19.786899      361.88679     -4090.9936    
      5400  -3503956       -3503974.9      18.929098      346.19828     -4414.5552    
      5500  -3503956.6     -3503976.3      19.757634      361.35155     -4875.0104    
      5600  -3503957.3     -3503977.2      19.92976       364.4996      -5476.3232    
      5700  -3503958       -3503976.6      18.536405      339.01624     -4623.9525    
      5800  -3503958.8     -3503977        18.243032      333.65069     -4043.1718    
      5900  -3503959.5     -3503977.5      17.932738      327.97564     -5564.4069    
      6000  -3503960.2     -3503978        17.812501      325.7766      -5625.8312    
      6100  -3503960.8     -3503978.5      17.686566      323.47335     -5487.8073    
      6200  -3503961.4     -3503978.3      16.922154      309.49286     -3036.56      
      6300  -3503961.8     -3503978.6      16.746292      306.27649     -4980.2277    
      6400  -3503962.1     -3503979.5      17.379316      317.854       -5665.874     
      6500  -3503962.4     -3503979        16.662461      304.74329     -3866.0983    
      6600  -3503962.5     -3503978.8      16.312425      298.34139     -6854.4096    
      6700  -3503962.4     -3503978.4      15.969253      292.06506     -6874.7768    
      6800  -3503962.3     -3503978.7      16.351464      299.05539     -4017.5836    
      6900  -3503962.1     -3503978.6      16.500556      301.78217     -6292.6015    
      7000  -3503961.7     -3503979.4      17.666058      323.09829     -5527.7225    
      7100  -3503961.3     -3503978.7      17.442849      319.01596     -4052.1471    
      7200  -3503960.7     -3503978.6      17.889818      327.19067     -4417.3297    
      7300  -3503960.1     -3503978.9      18.801908      343.87209     -5870.8464    
      7400  -3503959.5     -3503977.9      18.444041      337.32698     -2107.0293    
      7500  -3503958.8     -3503978.4      19.576116      358.03174     -6591.486     
      7600  -3503958.1     -3503977.5      19.351513      353.92392     -4627.9693    
      7700  -3503957.5     -3503976.5      19.05646       348.52764     -4119.4751    
      7800  -3503956.9     -3503976.6      19.768286      361.54637     -2547.8204    
      7900  -3503956.3     -3503975.4      19.049032      348.39179     -4427.4249    
      8000  -3503955.9     -3503975.6      19.7315        360.87359     -2790.2488    
      8100  -3503955.6     -3503976.9      21.289683      389.37153     -3458.9961    
      8200  -3503955.5     -3503976.1      20.655598      377.7746      -1799.9677    
      8300  -3503955.5     -3503976.6      21.120791      386.28263     -4697.0842    
      8400  -3503955.6     -3503975.5      19.963715      365.12061     -3688.4197    
      8500  -3503955.8     -3503975.4      19.577344      358.0542      -4303.8474    
      8600  -3503956.1     -3503975.2      19.084291      349.03664     -6284.0953    
      8700  -3503956.5     -3503975.9      19.407119      354.94091     -4214.461     
      8800  -3503956.9     -3503976        19.086964      349.08553     -5147.5117    
      8900  -3503957.3     -3503976.5      19.166972      350.54881     -2604.9744    
      9000  -3503957.8     -3503977.6      19.822169      362.53184     -4433.1672    
      9100  -3503958.2     -3503977        18.801728      343.86879     -4115.0681    
      9200  -3503958.6     -3503978.1      19.466503      356.02701     -5220.4286    
      9300  -3503959       -3503979.1      20.114378      367.87612     -5735.0113    
      9400  -3503959.3     -3503977.2      17.884389      327.09139     -4619.7809    
      9500  -3503959.5     -3503977.9      18.361885      335.82441     -3460.291     
      9600  -3503959.7     -3503977.2      17.572289      321.38332     -6161.463     
      9700  -3503959.7     -3503978.6      18.90037       345.67287     -5124.3693    
      9800  -3503959.7     -3503977.3      17.666498      323.10634     -5022.6489    
      9900  -3503959.5     -3503977.5      17.957974      328.4372      -4646.5145    
     10000  -3503959.2     -3503977.7      18.48092       338.00146     -6075.7623    
     10100  -3503958.9     -3503976.8      17.951754      328.32343     -3878.0788    
     10200  -3503958.4     -3503976.7      18.206087      332.97498     -3404.7803    
     10300  -3503957.9     -3503976.5      18.567936      339.59292     -3078.9611    
     10400  -3503957.4     -3503975.5      18.104318      331.1137      -5330.4712    
     10500  -3503956.8     -3503975.9      19.138912      350.03562     -2962.0575    
     10600  -3503956.2     -3503974.5      18.32341       335.12073     -4926.8103    
     10700  -3503955.6     -3503976.1      20.54792       375.80526     -6927.2712    
     10800  -3503955       -3503975.6      20.63774       377.44801     -4515.5299    
     10900  -3503954.4     -3503975.7      21.255445      388.74534     -6050.2652    
     11000  -3503953.9     -3503975.2      21.303736      389.62854     -3426.0203    
     11100  -3503953.5     -3503974.4      20.96879       383.50265     -5990.9537    
     11200  -3503953.1     -3503974.3      21.159449      386.98965     -5374.9864    
     11300  -3503952.8     -3503973.2      20.372647      372.59967     -4138.2441    
     11400  -3503952.6     -3503973.7      21.106607      386.0232      -6669.5649    
     11500  -3503952.5     -3503974.1      21.541931      393.98494     -1917.8426    
     11600  -3503952.6     -3503973.8      21.213704      387.98193     -5551.0147    
     11700  -3503952.8     -3503975.1      22.314175      408.10867     -3417.299     
     11800  -3503953.1     -3503975.5      22.417388      409.99636     -4752.591     
     11900  -3503953.5     -3503974.7      21.222056      388.13467     -7392.5071    
     12000  -3503954       -3503974.7      20.748155      379.4674      -2479.8354    
     12100  -3503954.5     -3503976.6      22.041775      403.12669     -5996.0681    
     12200  -3503955.1     -3503976.2      21.097485      385.85637     -4213.4616    
     12300  -3503955.6     -3503976.5      20.86551       381.61373     -3543.5359    
     12400  -3503956.2     -3503976.1      19.860811      363.23859     -3547.7773    
     12500  -3503956.7     -3503976.6      19.841509      362.88556     -5448.091     
     12600  -3503957.2     -3503976.6      19.411023      355.01231     -3547.765     
     12700  -3503957.7     -3503977.3      19.621141      358.85521     -7235.9775    
     12800  -3503958       -3503977        19.035107      348.1371      -3770.2295    
     12900  -3503958.2     -3503976.6      18.383394      336.21779     -3068.0541    
     13000  -3503958.3     -3503977        18.702659      342.05689     -5754.7449    
     13100  -3503958.4     -3503978.4      20.033785      366.40214     -3397.2159    
     13200  -3503958.3     -3503977.7      19.435574      355.46134     -5534.8741    
     13300  -3503958.1     -3503977        18.869592      345.10997     -5119.9858    
     13400  -3503957.8     -3503977.4      19.524383      357.08557     -4882.714     
     13500  -3503957.5     -3503976.8      19.339637      353.70672     -6375.2723    
     13600  -3503957       -3503977.2      20.202678      369.49105     -2437.6233    
     13700  -3503956.4     -3503975.9      19.458023      355.8719      -5258.4134    
     13800  -3503955.8     -3503976.5      20.656043      377.78274     -4043.9888    
     13900  -3503955.2     -3503976.2      20.994623      383.97511     -4724.8842    
     14000  -3503954.6     -3503976.6      22.077893      403.78727     -5234.0645    
     14100  -3503953.9     -3503975.6      21.730619      397.43589     -3858.5534    
     14200  -3503953.3     -3503974.3      21.000121      384.07566     -4675.9454    
     14300  -3503952.8     -3503974.3      21.483551      392.91722     -2946.0585    
     14400  -3503952.3     -3503974.3      21.985621      402.09969     -3449.509     
     14500  -3503951.9     -3503974        22.143562      404.98831     -6918.8315    
     14600  -3503951.6     -3503974.1      22.512582      411.73739     -2647.743     
     14700  -3503951.3     -3503974.1      22.707324      415.29907     -2802.8576    
     14800  -3503951.2     -3503974.8      23.591032      431.46138     -6001.8222    
     14900  -3503951.2     -3503973.2      22.054155      403.35311     -1747.129     
     15000  -3503951.3     -3503973.5      22.241594      406.78124     -4962.4129    
     15100  -3503951.5     -3503974        22.533179      412.1141      -4239.617     
     15200  -3503951.8     -3503973.6      21.791022      398.54061     -2935.8151    
     15300  -3503952.1     -3503975.2      23.025147      421.11179     -2700.4       
     15400  -3503952.6     -3503974.9      22.350269      408.76881     -2758.0978    
     15500  -3503953       -3503975        21.96937       401.80246     -2634.8785    
     15600  -3503953.5     -3503975.6      22.114878      404.46369     -3816.7014    
     15700  -3503954       -3503975.9      21.871177      400.0066      -4795.815     
     15800  -3503954.5     -3503974.8      20.293823      371.15803     -3479.9648    
     15900  -3503954.9     -3503974.7      19.812587      362.35661     -2087.0492    
     16000  -3503955.3     -3503977.1      21.803637      398.77134     -4354.0917    
     16100  -3503955.6     -3503974.8      19.145277      350.15203     -4196.1664    
     16200  -3503955.9     -3503976.6      20.749632      379.49442     -3976.3878    
     16300  -3503956       -3503977        21.043122      384.86211     -5073.9349    
     16400  -3503956       -3503977.4      21.406849      391.51439     -1939.3411    
     16500  -3503956       -3503976.9      20.889453      382.05163     -4571.5267    
     16600  -3503955.9     -3503976.3      20.379055      372.71686     -2931.7394    
     16700  -3503955.7     -3503977.1      21.392062      391.24395     -2250.2487    
     16800  -3503955.5     -3503975.9      20.478099      374.5283      -2224.3756    
     16900  -3503955.1     -3503976.1      20.955072      383.25175     -3682.1778    
     17000  -3503954.7     -3503976.2      21.487005      392.9804      -3306.791     
     17100  -3503954.3     -3503976        21.767318      398.1071      -4671.9688    
     17200  -3503953.8     -3503974.6      20.797371      380.36752     -2140.1351    
     17300  -3503953.3     -3503975.4      22.143906      404.99458     -2425.4602    
     17400  -3503952.7     -3503974.1      21.338674      390.26753     -4084.1494    
     17500  -3503952.2     -3503974.8      22.591387      413.17866     -2561.4095    
     17600  -3503951.8     -3503973.8      22.017845      402.68903     -4707.7687    
     17700  -3503951.4     -3503974.2      22.859201      418.07677     -3824.3196    
     17800  -3503951       -3503974.9      23.85571       436.30213     -2279.9013    
     17900  -3503950.8     -3503974.2      23.396787      427.9088      -2052.4898    
     18000  -3503950.5     -3503974.1      23.565829      431.00043     -3763.5404    
     18100  -3503950.4     -3503973.8      23.363402      427.29821     -2837.7421    
     18200  -3503950.4     -3503973.5      23.163698      423.64578     -3159.7718    
     18300  -3503950.4     -3503974        23.572865      431.12913     -4373.3004    
     18400  -3503950.5     -3503972        21.561627      394.34517     -1998.5999    
     18500  -3503950.6     -3503973.9      23.356026      427.16332     -1808.3004    
     18600  -3503950.8     -3503973.9      23.107635      422.62043     -3218.2199    
     18700  -3503950.9     -3503972.6      21.620689      395.42537     -4710.9183    
     18800  -3503951.1     -3503973.3      22.154845      405.19466     -249.57411    
     18900  -3503951.4     -3503974.4      23.02872       421.17714     -2342.108     
     19000  -3503951.6     -3503973.5      21.916023      400.82678     -2145.5009    
     19100  -3503951.8     -3503973.5      21.732057      397.4622      -3799.8317    
     19200  -3503952       -3503974        21.997384      402.31482     -4070.8926    
     19300  -3503952.1     -3503974.5      22.352338      408.80664     -585.4327     
     19400  -3503952.3     -3503975.3      23.052937      421.62005     -4218.8204    
     19500  -3503952.3     -3503974.8      22.423961      410.11657     -2387.0485    
     19600  -3503952.3     -3503974.7      22.325009      408.30682     -2538.6601    
     19700  -3503952.3     -3503972.5      20.190516      369.26863     -3714.6856    
     19800  -3503952.2     -3503974.4      22.155306      405.20308     -1383.4629    
     19900  -3503952.1     -3503974.4      22.311105      408.05253     -4173.2437    
     20000  -3503951.9     -3503974        22.116276      404.48925     -1981.441     
     20100  -3503951.7     -3503975        23.328896      426.66713     -2839.5018    
     20200  -3503951.5     -3503974.6      23.187121      424.07417     -2556.1336    
     20300  -3503951.2     -3503974.1      22.912757      419.05627     -3879.0825    
     20400  -3503950.9     -3503974.8      23.938414      437.81472     -1747.1711    
     20500  -3503950.6     -3503973.3      22.737054      415.84281     -1872.9257    
     20600  -3503950.3     -3503973        22.637291      414.01822     -2584.096     
     20700  -3503950.1     -3503973.9      23.865181      436.47535     -4832.6717    
     20800  -3503949.8     -3503973.9      24.060162      440.0414      -4901.814     
     20900  -3503949.6     -3503973.3      23.736974      434.13055     -3405.7887    
     21000  -3503949.4     -3503974.1      24.649317      450.81658     -1120.339     
     21100  -3503949.3     -3503972.6      23.279516      425.76401     -4076.5876    
     21200  -3503949.2     -3503973.5      24.256302      443.62865     -3257.9794    
     21300  -3503949.1     -3503973.7      24.5762        449.47934     -3059.9505    
     21400  -3503949.1     -3503972.9      23.841196      436.03668     -5747.128     
     21500  -3503949.1     -3503972.4      23.342452      426.91505     -2923.1558    
     21600  -3503949.1     -3503973.6      24.468048      447.50132     -3589.3672    
     21700  -3503949.1     -3503972.5      23.351969      427.08912     -4136.8158    
     21800  -3503949.2     -3503973.8      24.618454      450.25212     -2062.8426    
     21900  -3503949.3     -3503974.1      24.774388      453.10403     -3684.9694    
     22000  -3503949.4     -3503973.1      23.635035      432.26617     -4977.4935    
     22100  -3503949.6     -3503973.1      23.550454      430.71925     -1796.6116    
     22200  -3503949.7     -3503972.3      22.650605      414.26171     -3357.5642    
     22300  -3503949.8     -3503973.5      23.736327      434.11872     -4577.7532    
     22400  -3503949.9     -3503973.6      23.744988      434.27712     -966.44878    
     22500  -3503950       -3503973.2      23.213282      424.55264     -2956.8529    
     22600  -3503950       -3503972.9      22.868469      418.24628     -3867.9505    
     22700  -3503950       -3503971.7      21.716869      397.18441     -2740.819     
     22800  -3503950       -3503972.1      22.088333      403.97821     -6295.4677    
     22900  -3503949.9     -3503973.8      23.920453      437.48624     -1773.9534    
     23000  -3503949.8     -3503972.6      22.816867      417.30252     -3744.0588    
     23100  -3503949.6     -3503974.1      24.472442      447.58169     -4775.5348    
     23200  -3503949.4     -3503974.1      24.746035      452.58548     -4047.4845    
     23300  -3503949.2     -3503973        23.860047      436.38145     -4512.3993    
     23400  -3503949       -3503972.2      23.274853      425.67872     -5399.351     
     23500  -3503948.7     -3503972.9      24.17815       442.1993      -4860.3092    
     23600  -3503948.5     -3503971.6      23.087684      422.25555     -2358.9946    
     23700  -3503948.2     -3503973        24.821417      453.96415     -7292.1372    
     23800  -3503948       -3503972.5      24.478652      447.69526     -2984.0616    
     23900  -3503947.7     -3503972        24.290659      444.257       -6310.6135    
     24000  -3503947.5     -3503972.2      24.645059      450.7387      -4979.9124    
     24100  -3503947.3     -3503972        24.631833      450.49682     -2904.2838    
     24200  -3503947.2     -3503971.3      24.083862      440.47486     -5505.8734    
     24300  -3503947.1     -3503972        24.856488      454.60557     -2484.2974    
     24400  -3503947       -3503972.1      25.044932      458.05206     -2511.016     
     24500  -3503947       -3503970.8      23.814009      435.53946     -4334.2108    
     24600  -3503947       -3503971.7      24.68539       451.47633     -5493.6648    
     24700  -3503947       -3503972.7      25.69066       469.86193     -2581.5029    
     24800  -3503947       -3503971.9      24.925768      455.87265     -4488.4175    
     24900  -3503947       -3503970.7      23.721103      433.84029     -4989.6443    
     25000  -3503947.1     -3503972.1      25.0121        457.4516      -1096.1604    
     25100  -3503947.1     -3503971.4      24.214386      442.86204     -4800.1466    
     25200  -3503947.2     -3503972.3      25.040183      457.96522     -2945.2048    
     25300  -3503947.3     -3503972.3      25.01858       457.57012     -5365.4485    
     25400  -3503947.4     -3503969.6      22.230749      406.58288     -3750.5295    
     25500  -3503947.5     -3503971.5      23.9983        438.91        -2362.4763    
     25600  -3503947.6     -3503971.3      23.709251      433.62353     -4095.6718    
     25700  -3503947.7     -3503972.8      25.182576      460.56946     -4249.4337    
     25800  -3503947.7     -3503970.9      23.206619      424.43077     -3560.859     
     25900  -3503947.7     -3503971.8      24.090781      440.60141     -1401.3533    
     26000  -3503947.7     -3503972.9      25.16034       460.16278     -2369.6591    
     26100  -3503947.7     -3503970.6      22.919208      419.17426     -2103.9019    
     26200  -3503947.6     -3503972.4      24.82996       454.1204      -5188.2429    
     26300  -3503947.5     -3503972.4      24.896915      455.34496     -4702.6001    
     26400  -3503947.3     -3503971.1      23.781075      434.93712     -4065.0864    
     26500  -3503947.1     -3503971.8      24.731156      452.31336     -5714.6374    
     26600  -3503946.9     -3503971.4      24.543378      448.87904     -6534.5726    
     26700  -3503946.6     -3503971.6      24.989617      457.0404      -4363.6204    
     26800  -3503946.3     -3503972.1      25.77302       471.36823     -5852.8296    
     26900  -3503946.1     -3503971.5      25.409574      464.72108     -4543.0133    
     27000  -3503945.8     -3503971.7      25.893118      473.56473     -4616.4562    
     27100  -3503945.5     -3503971.3      25.792892      471.73168     -5519.3297    
     27200  -3503945.3     -3503971.1      25.876256      473.25632     -4434.2498    
     27300  -3503945.1     -3503971.7      26.57806       486.09177     -3148.4553    
     27400  -3503944.9     -3503971.1      26.193398      479.05661     -2954.0453    
     27500  -3503944.9     -3503971.9      27.06331       494.96661     -4202.4067    
     27600  -3503944.9     -3503971.1      26.25509       480.18491     -3153.859     
     27700  -3503944.9     -3503970.8      25.891782      473.54028     -4647.9621    
     27800  -3503945       -3503971.6      26.628615      487.01639     -2044.8113    
     27900  -3503945.1     -3503969.5      24.367361      445.65984     -5714.8727    
     28000  -3503945.2     -3503969.8      24.539925      448.81589     -5477.7329    
     28100  -3503945.4     -3503970        24.577696      449.5067      -4966.3866    
     28200  -3503945.5     -3503970.9      25.408457      464.70066     -3974.0527    
     28300  -3503945.6     -3503971.9      26.285461      480.74037     -2378.408     
     28400  -3503945.8     -3503972        26.184101      478.88658     -6267.2884    
     28500  -3503946       -3503972        26.083797      477.05209     -3580.0959    
     28600  -3503946       -3503971        24.943212      456.19169     -4780.0501    
     28700  -3503946.1     -3503971.2      25.114699      459.32806     -3880.1313    
     28800  -3503946.1     -3503970.9      24.830611      454.13232     -4459.6597    
     28900  -3503946.1     -3503970.7      24.62177       450.31277     -3493.9333    
     29000  -3503946       -3503971        24.991866      457.08153     -4438.0599    
     29100  -3503945.8     -3503971.5      25.651716      469.14967     -4238.2216    
     29200  -3503945.7     -3503970.4      24.773643      453.0904      -782.94848    
     29300  -3503945.5     -3503970.7      25.21863       461.22887     -5411.9322    
     29400  -3503945.3     -3503971.1      25.817974      472.1904      -2015.8792    
     29500  -3503945       -3503971.2      26.206945      479.30437     -2643.5155    
     29600  -3503944.8     -3503970.6      25.754649      471.03224     -6626.5252    
     29700  -3503944.6     -3503970.7      26.121469      477.74109     -1154.0932    
     29800  -3503944.3     -3503971.1      26.782521      489.8312      -2778.8567    
     29900  -3503944.1     -3503970.7      26.585193      486.22222     -5659.1443    
     30000  -3503943.9     -3503967.5      23.662245      432.76382     -2985.7697    
     30100  -3503943.7     -3503969.3      25.595402      468.11973     -5659.5474    
     30200  -3503943.5     -3503969.9      26.472549      484.16206     -4029.2253    
     30300  -3503943.3     -3503969.6      26.269536      480.44912     -2902.9742    
     30400  -3503943.1     -3503969.5      26.380002      482.46945     -2848.3867    
     30500  -3503943       -3503969.2      26.16855       478.60216     -4239.0207    
     30600  -3503942.9     -3503970.7      27.772898      507.94442     -2677.7201    
     30700  -3503942.9     -3503969.3      26.452249      483.79079     -3288.8631    
     30800  -3503942.9     -3503970.6      27.774481      507.97337     -3884.2899    
     30900  -3503942.9     -3503969.7      26.825907      490.6247      -4749.9221    
     31000  -3503943       -3503969.5      26.518853      485.00892     -3779.9704    
     31100  -3503943.1     -3503969.8      26.708827      488.4834      -4599.3966    
     31200  -3503943.2     -3503969.8      26.602798      486.5442      -4660.4531    
     31300  -3503943.3     -3503969.2      25.819902      472.22566     -2811.2945    
     31400  -3503943.4     -3503969.5      26.122934      477.76788     -3641.706     
     31500  -3503943.4     -3503969        25.645928      469.04382     -5043.6151    
     31600  -3503943.3     -3503968.9      25.62246       468.6146      -3402.5842    
     31700  -3503943.1     -3503969.7      26.600871      486.50897     -3460.848     
     31800  -3503943       -3503970.7      27.737178      507.29113     -4040.7584    
     31900  -3503942.8     -3503968.9      26.123266      477.77395     -2395.926     
     32000  -3503942.6     -3503970.5      27.86654       509.65706     -4176.1138    
     32100  -3503942.4     -3503970.7      28.309842      517.7647      -4667.0723    
     32200  -3503942.3     -3503969        26.704324      488.40105     -3444.3668    
     32300  -3503942.1     -3503968.7      26.580515      486.13667     -4948.4447    
     32400  -3503942       -3503970        28.013922      512.35256     -2255.3102    
     32500  -3503941.8     -3503968.1      26.258633      480.24971     -3797.5433    
     32600  -3503941.7     -3503967.8      26.135477      477.99728     -4175.3933    
     32700  -3503941.6     -3503967.8      26.23006       479.72713     -3489.3975    
     32800  -3503941.4     -3503968.5      27.053666      494.79024     -3526.8869    
     32900  -3503941.3     -3503967.7      26.481844      484.33206     -5009.0512    
     33000  -3503941.1     -3503967.5      26.406565      482.95527     -4053.9721    
     33100  -3503941       -3503968.2      27.22347       497.89581     -3888.5215    
     33200  -3503940.9     -3503968.4      27.53546       503.60187     -1524.9513    
     33300  -3503940.7     -3503969.3      28.569585      522.51519     -4106.4876    
     33400  -3503940.6     -3503967.8      27.184664      497.18609     -5874.3255    
     33500  -3503940.5     -3503967.2      26.706669      488.44394     -3156.5031    
     33600  -3503940.4     -3503966.5      26.134146      477.97294     -3286.8783    
     33700  -3503940.3     -3503967.1      26.752237      489.27734     -5427.8107    
     33800  -3503940.3     -3503967.4      27.121331      496.02777     -4394.8615    
     33900  -3503940.3     -3503969.1      28.782836      526.41538     -4792.0742    
     34000  -3503940.3     -3503967.9      27.627541      505.28596     -4201.5466    
     34100  -3503940.4     -3503969.5      29.121882      532.61628     -5000.2202    
     34200  -3503940.5     -3503967.2      26.691835      488.17262     -4828.7477    
     34300  -3503940.6     -3503968.1      27.545282      503.7815      -3526.6327    
     34400  -3503940.7     -3503968.2      27.50082       502.96832     -5320.1788    
     34500  -3503940.9     -3503969.9      29.069673      531.66141     -4125.2481    
     34600  -3503941       -3503969.6      28.646596      523.92367     -5748.7689    
     34700  -3503941.1     -3503968.7      27.558483      504.02294     -4303.775     
     34800  -3503941.2     -3503968.4      27.208923      497.62976     -4131.5415    
     34900  -3503941.3     -3503970.4      29.134363      532.84455     -3548.9966    
     35000  -3503941.4     -3503968.6      27.256199      498.4944      -5976.7205    
     35100  -3503941.4     -3503970.1      28.722834      525.318       -4016.7994    
     35200  -3503941.5     -3503968.4      26.8786        491.58841     -4024.7578    
     35300  -3503941.6     -3503969.1      27.596159      504.71201     -3730.0866    
     35400  -3503941.6     -3503968.9      27.340917      500.04382     -6282.1556    
     35500  -3503941.6     -3503968.5      26.811365      490.35874     -3932.6729    
     35600  -3503941.7     -3503969.7      28.013539      512.34555     -3108.7281    
     35700  -3503941.7     -3503969.2      27.468469      502.37665     -3327.327     
     35800  -3503941.7     -3503969.7      28.045334      512.92706     -3078.9804    
     35900  -3503941.6     -3503968        26.429451      483.37383     -2277.9781    
     36000  -3503941.6     -3503969.3      27.7094        506.7831      -2562.8835    
     36100  -3503941.5     -3503969.7      28.218928      516.10195     -1400.2932    
     36200  -3503941.4     -3503971.1      29.680044      542.82462     -4631.457     
     36300  -3503941.3     -3503968.5      27.22936       498.00354     -4834.4866    
     36400  -3503941.1     -3503969.7      28.669979      524.35133     -3071.0449    
     36500  -3503940.9     -3503968.5      27.587119      504.54667     -4250.3272    
     36600  -3503940.7     -3503969.1      28.443072      520.20138     -4055.0866    
     36700  -3503940.5     -3503969.3      28.783187      526.42182     -3422.7349    
     36800  -3503940.3     -3503967.2      26.944269      492.78945     -2210.4332    
     36900  -3503940.1     -3503969.2      29.106994      532.34398     -5802.9964    
     37000  -3503939.8     -3503968        28.123472      514.35614     -4966.1262    
     37100  -3503939.6     -3503967.8      28.230667      516.31666     -5364.5662    
     37200  -3503939.4     -3503968.6      29.179638      533.67259     -699.90257    
     37300  -3503939.2     -3503966.9      27.707024      506.73963     -3211.381     
     37400  -3503939       -3503966        27.034571      494.44099     -3704.2615    
     37500  -3503938.8     -3503967.4      28.537722      521.93245     -2997.5577    
     37600  -3503938.7     -3503968.6      29.895551      546.76607     -3693.8843    
     37700  -3503938.6     -3503966.9      28.327198      518.08213     -2577.9289    
     37800  -3503938.5     -3503967.6      29.077264      531.80025     -3347.7569    
     37900  -3503938.5     -3503967.3      28.855025      527.73567     -3229.4506    
     38000  -3503938.5     -3503966.8      28.362083      518.72015     -2187.0285    
     38100  -3503938.5     -3503966.9      28.459349      520.49908     -3056.8636    
     38200  -3503938.5     -3503966.1      27.648174      505.66332     -2882.0083    
     38300  -3503938.5     -3503968.2      29.729227      543.72413     -169.39297    
     38400  -3503938.5     -3503968.3      29.703048      543.24534     -3513.4856    
     38500  -3503938.6     -3503968.6      29.95405       547.83597     -5913.0149    
     38600  -3503938.7     -3503968        29.267366      535.27706     -1838.7277    
     38700  -3503938.9     -3503967.8      28.906894      528.68432     -889.06998    
     38800  -3503939       -3503967.9      28.879415      528.18175     -2223.331     
     38900  -3503939.1     -3503967.3      28.225144      516.21564     -3441.6857    
     39000  -3503939.2     -3503967.6      28.425591      519.88165      1658.712     
     39100  -3503939.3     -3503967.7      28.419648      519.77296     -4564.7976    
     39200  -3503939.4     -3503967.3      27.879481      509.89375     -1629.512     
     39300  -3503939.4     -3503966.8      27.36743       500.52872     -1014.6035    
     39400  -3503939.4     -3503969.4      29.938005      547.54252     -5523.9146    
     39500  -3503939.3     -3503967.2      27.860055      509.53846     -4979.9346    
     39600  -3503939.2     -3503967.6      28.408615      519.57118     -3904.8773    
     39700  -3503938.9     -3503966.4      27.419487      501.48082     -2607.4401    
     39800  -3503938.6     -3503968.2      29.528096      540.04561     -4743.0426    
     39900  -3503938.3     -3503967.8      29.527671      540.03784     -2676.1188    
     40000  -3503937.9     -3503968.3      30.388591      555.78339     -2303.3284    
     40100  -3503937.5     -3503966.8      29.285948      535.61691     -2333.3724    
     40200  -3503937.1     -3503966.2      29.029991      530.93566     -1650.9344    
     40300  -3503936.8     -3503967.7      30.886062      564.88173     -3640.1448    
     40400  -3503936.5     -3503968.3      31.807518      581.73444     -1034.0836    
     40500  -3503936.2     -3503966.5      30.292404      554.0242      -2412.2306    
     40600  -3503936.1     -3503967.6      31.517218      576.42508      4.7965502    
     40700  -3503936       -3503966.1      30.102638      550.55354     -2219.27      
     40800  -3503935.8     -3503965.1      29.230648      534.60552     -1985.8725    
     40900  -3503935.7     -3503965        29.274381      535.40536     -1582.2613    
     41000  -3503935.6     -3503965.9      30.227106      552.82994     -2513.2046    
     41100  -3503935.6     -3503965.8      30.250894      553.26501     -2462.6542    
     41200  -3503935.5     -3503965.6      30.097027      550.4509      -2065.9249    
     41300  -3503935.6     -3503965.1      29.578636      540.96994     -2220.8247    
     41400  -3503935.6     -3503966        30.351244      555.10034     -3455.3017    
     41500  -3503935.7     -3503966.4      30.695476      561.39608     -2833.9169    
     41600  -3503935.7     -3503965.5      29.785623      544.75558     -3061.7863    
     41700  -3503935.8     -3503966.4      30.561625      558.94804     -1974.0368    
     41800  -3503935.9     -3503965.5      29.624749      541.81331     -1602.5475    
     41900  -3503935.9     -3503966        30.047172      549.5391      -3970.5505    
     42000  -3503936       -3503966.8      30.766265      562.69075     -3877.0871    
     42100  -3503936.1     -3503966.5      30.360469      555.26905     -2076.5406    
     42200  -3503936.2     -3503966        29.869069      546.28173     -2873.9194    
     42300  -3503936.2     -3503965.3      29.097791      532.17567     -1644.3973    
     42400  -3503936.2     -3503964.9      28.652247      524.02702     -3167.5424    
     42500  -3503936.2     -3503966.9      30.719868      561.84218     -2964.3677    
     42600  -3503936.2     -3503966.8      30.588759      559.44431     -633.40052    
     42700  -3503936.3     -3503968.3      32.026472      585.73893     -527.67424    
     42800  -3503936.4     -3503967.4      31.06463       568.14761     -3990.2944    
     42900  -3503936.4     -3503965.3      28.864385      527.90686     -3665.1427    
     43000  -3503936.4     -3503967.8      31.403362      574.34274     -1349.0257    
     43100  -3503936.4     -3503966.6      30.183608      552.0344      -4666.0126    
     43200  -3503936.4     -3503966.1      29.712155      543.4119      -3829.5698    
     43300  -3503936.3     -3503967.2      30.856179      564.3352      -1560.7341    
     43400  -3503936.2     -3503965.6      29.44096       538.45197     -1667.8821    
     43500  -3503936       -3503968        31.978166      584.85545     -2161.3494    
     43600  -3503935.8     -3503965.9      30.15563       551.52272     -4809.5987    
     43700  -3503935.5     -3503966.9      31.359625      573.54283     -1879.5132    
     43800  -3503935.3     -3503965.2      29.987694      548.45129     -5722.8488    
     43900  -3503934.9     -3503964.6      29.693278      543.06665     -3377.0249    
     44000  -3503934.5     -3503965.1      30.621008      560.0341      -7027.3376    
     44100  -3503934       -3503965.2      31.256244      571.65207     -3371.1682    
     44200  -3503933.5     -3503963.8      30.324319      554.60791     -3499.4053    
     44300  -3503933       -3503962.9      29.963739      548.01317     -6225.9727    
     44400  -3503932.5     -3503963.7      31.195102      570.53382     -1600.3199    
     44500  -3503932.1     -3503962        29.900311      546.85313     -1062.6686    
     44600  -3503931.9     -3503962.5      30.636734      560.32173     -4440.9249    
     44700  -3503931.7     -3503963.4      31.715071      580.04365     -1033.4915    
     44800  -3503931.5     -3503963.2      31.685564      579.504       -2655.8091    
     44900  -3503931.4     -3503961.9      30.491293      557.66171     -3242.0056    
     45000  -3503931.4     -3503964.3      32.893521      601.59658     -1525.0923    
     45100  -3503931.4     -3503964        32.54886       595.293        875.23781    
     45200  -3503931.5     -3503962.3      30.757503      562.5305      -4258.1031    
     45300  -3503931.7     -3503962.4      30.774805      562.84693     -6463.2552    
     45400  -3503931.8     -3503964.1      32.298624      590.71639     -3202.5742    
     45500  -3503932       -3503964        32.055164      586.26369     -1641.8941    
     45600  -3503932.2     -3503962.7      30.505558      557.92261     -3525.2725    
     45700  -3503932.6     -3503964.3      31.605157      578.03341     -4516.3793    
     45800  -3503933.3     -3503964.2      30.881806      564.8039      -2835.2165    
     45900  -3503934.1     -3503964        29.847061      545.87923     -1693.6738    
     46000  -3503935       -3503964.9      29.914069      547.10475     -6096.1199    
     46100  -3503935.6     -3503966.3      30.701159      561.5         -1302.4505    
     46200  -3503936.1     -3503966.6      30.526803      558.31118      196.47692    
     46300  -3503936.4     -3503965.7      29.296466      535.80927     -5885.4095    
     46400  -3503936.6     -3503965.7      29.091095      532.0532      -1914.2551    
     46500  -3503936.6     -3503966.1      29.473391      539.04509     -1562.7828    
     46600  -3503936.5     -3503968.3      31.849091      582.49477     -4849.9616    
     46700  -3503936.3     -3503966.5      30.187596      552.10734     -4143.5881    
     46800  -3503935.9     -3503967.2      31.303682      572.51967     -4781.2163    
     46900  -3503935.5     -3503964.9      29.423093      538.12519     -2167.0534    
     47000  -3503934.9     -3503965.3      30.406384      556.1088      -6633.1803    
     47100  -3503934.3     -3503965.4      31.108325      568.94675     -1449.3778    
     47200  -3503933.8     -3503966.7      32.878001      601.31273     -3209.2289    
     47300  -3503933.3     -3503965.1      31.729921      580.31525     -3926.1703    
     47400  -3503933       -3503965.7      32.731995      598.64239     -2010.6924    
     47500  -3503932.6     -3503964.1      31.428888      574.80959     -3558.2026    
     47600  -3503932.4     -3503963.1      30.73703       562.15606     -4730.0535    
     47700  -3503932       -3503963.4      31.379159      573.90009     -290.45345    
     47800  -3503931.8     -3503963.9      32.131966      587.66835     -3164.7851    
     47900  -3503931.6     -3503966.1      34.468173      630.39572     -3377.0465    
     48000  -3503931.4     -3503964.9      33.540772      613.43428     -765.02554    
     48100  -3503931.2     -3503964.3      33.05283       604.51021     -7040.2965    
     48200  -3503931       -3503962.9      31.867525      582.83191     -3699.0919    
     48300  -3503930.8     -3503962.6      31.801439      581.62326     -1054.0172    
     48400  -3503930.6     -3503962.8      32.177667      588.50417     -1429.335     
     48500  -3503930.5     -3503963        32.585342      595.96022     -2478.2119    
     48600  -3503930.3     -3503963.6      33.266597      608.41985     -3821.6087    
     48700  -3503930.2     -3503962.9      32.675799      597.61462     -2687.9615    
     48800  -3503930.1     -3503961        30.833599      563.92223     -5851.2824    
     48900  -3503930       -3503962.9      32.894236      601.60966      2032.037     
     49000  -3503930       -3503962        32.024359      585.70029     -2914.9597    
     49100  -3503929.9     -3503963.1      33.121641      605.76871     -4883.6081    
     49200  -3503929.9     -3503962.2      32.290393      590.56583     -2935.9663    
     49300  -3503929.9     -3503963.5      33.655266      615.5283      -3812.9379    
     49400  -3503929.8     -3503961.3      31.513175      576.35114     -989.09794    
     49500  -3503929.7     -3503960.4      30.674829      561.01846     -3811.889     
     49600  -3503929.6     -3503962.3      32.654655      597.2279      -1506.4509    
     49700  -3503929.5     -3503961.1      31.651143      578.87446     -2818.0976    
     49800  -3503929.3     -3503963        33.662371      615.65824     -4854.8626    
     49900  -3503929.1     -3503962.5      33.391372      610.70189     -973.91721    
     50000  -3503928.9     -3503962.5      33.580686      614.16429     -5155.2443    
Loop time of 8509.28 on 72 procs for 50000 steps with 424 atoms

Performance: 1.015 ns/day, 23.637 hours/ns, 5.876 timesteps/s, 2.491 katom-step/s
94.5% CPU use with 72 MPI tasks x 1 OpenMP threads

MPI task timing breakdown:
Section |  min time  |  avg time  |  max time  |%varavg| %total
---------------------------------------------------------------
Pair    | 4431       | 6512.6     | 7466.2     | 695.1 | 76.54
Bond    | 0.02998    | 0.04635    | 0.065446   |   4.2 |  0.00
Neigh   | 0.090357   | 0.1161     | 0.13433    |   2.9 |  0.00
Comm    | 1034.8     | 1988.4     | 4069.8     |1258.0 | 23.37
Output  | 0.088681   | 0.092353   | 0.29449    |   7.9 |  0.00
Modify  | 5.905      | 6.2295     | 6.4916     |   5.3 |  0.07
Other   |            | 1.806      |            |       |  0.02

Nlocal:        5.88889 ave          10 max           2 min
Histogram: 1 3 12 17 0 17 6 11 2 3
Nghost:        382.097 ave         395 max         372 min
Histogram: 3 4 7 20 12 8 12 4 1 1
Neighs:              0 ave           0 max           0 min
Histogram: 72 0 0 0 0 0 0 0 0 0
FullNghs:      491.194 ave         861 max         161 min
Histogram: 1 3 12 17 12 7 6 9 3 2

Total # of neighbors = 35366
Ave neighs/atom = 83.410377
Ave special neighs/atom = 0
Neighbor list builds = 2222
Dangerous builds = 0
unfix therm_equ

fix therm_equ2 all nvt temp 600 300 1.0
run 100000
Per MPI rank memory allocation (min/avg/max) = 8.05 | 8.051 | 8.052 Mbytes
   Step         TotEng         PotEng         KinEng          Temp          Press     
     50000  -3503928.9     -3503962.5      33.580686      614.16429     -5155.2443    
     50100  -3503928.9     -3503963.6      34.655358      633.81919     -3678.1232    
     50200  -3503929       -3503964.8      35.871516      656.06176     -2094.284     
     50300  -3503929.1     -3503960.4      31.368956      573.71349     -2115.8536    
     50400  -3503929.2     -3503961.9      32.652326      597.18531     -1344.6765    
     50500  -3503929.4     -3503963.3      33.876558      619.57555     -4537.1103    
     50600  -3503929.7     -3503963.9      34.209434      625.6636      -2961.3505    
     50700  -3503930.2     -3503963.9      33.692744      616.21374     -410.54312    
     50800  -3503930.8     -3503965.5      34.712177      634.85837     -2944.9374    
     50900  -3503931.5     -3503962.7      31.197922      570.58541     -4747.8617    
     51000  -3503932.2     -3503962.6      30.378145      555.59233     -3877.5093    
     51100  -3503932.8     -3503963.9      31.081484      568.45585     -4990.3131    
     51200  -3503933.3     -3503962.8      29.468241      538.95091     -1720.5158    
     51300  -3503933.6     -3503963        29.353266      536.8481      -4522.6216    
     51400  -3503933.7     -3503963.5      29.705551      543.29112     -1283.7159    
     51500  -3503933.7     -3503965.1      31.420961      574.66462     -3368.5017    
     51600  -3503933.6     -3503964.2      30.605165      559.74435     -4837.9072    
     51700  -3503933.3     -3503963.6      30.248322      553.21797     -308.35318    
     51800  -3503933       -3503963.9      30.84427       564.1174      -1734.4327    
     51900  -3503932.7     -3503963.4      30.754293      562.47179     -4582.9849    
     52000  -3503932.3     -3503964.3      31.971043      584.72517     -2862.2959    
     52100  -3503931.9     -3503962.9      30.959062      566.21685     -2611.7795    
     52200  -3503931.6     -3503962.6      30.966123      566.34599     -4822.7594    
     52300  -3503931.3     -3503960.9      29.63195       541.94501     -3308.8524    
     52400  -3503931       -3503963.5      32.446801      593.42642     -2352.5016    
     52500  -3503930.8     -3503961.3      30.587258      559.41685     -6145.641     
     52600  -3503930.4     -3503963        32.510308      594.58792     -2316.7549    
     52700  -3503930.2     -3503963.5      33.312381      609.25719      2278.4205    
     52800  -3503929.9     -3503961.8      31.811891      581.81441     -4008.8145    
     52900  -3503929.7     -3503961.6      31.83139       582.17104     -3607.1553    
     53000  -3503929.5     -3503960.8      31.28874       572.2464       14.251904    
     53100  -3503929.3     -3503962.3      33.027317      604.0436      -3368.8447    
     53200  -3503929.1     -3503961.8      32.692501      597.92008     -4818.7128    
     53300  -3503929       -3503961        32.07212       586.57381     -3772.1021    
     53400  -3503928.8     -3503961.7      32.861836      601.01708     -4999.3433    
     53500  -3503928.7     -3503960.6      31.905194      583.52085     -3595.1411    
     53600  -3503928.5     -3503962.2      33.659638      615.60825     -1611.3992    
     53700  -3503928.5     -3503961.7      33.188607      606.99347     -3793.4993    
     53800  -3503928.5     -3503961.3      32.88317       601.40727     -503.14505    
     53900  -3503928.5     -3503960        31.48799       575.89052     -1071.8325    
     54000  -3503928.6     -3503962.9      34.304506      627.40238     -2739.8241    
     54100  -3503928.8     -3503962.4      33.608748      614.67753     -2740.5637    
     54200  -3503929.1     -3503962.4      33.26119       608.32095     -2597.0356    
     54300  -3503929.6     -3503963.1      33.485681      612.42672     -2713.4924    
     54400  -3503930.3     -3503962.6      32.256392      589.94399     -3001.521     
     54500  -3503931.1     -3503962.9      31.810612      581.79103     -688.5809     
     54600  -3503931.8     -3503964.3      32.49042       594.22418     -2862.7518    
     54700  -3503932.3     -3503964.6      32.223893      589.34962     -6007.4993    
     54800  -3503932.8     -3503964.8      32.028246      585.77138     -1780.8972    
     54900  -3503933.1     -3503963        29.887535      546.61946     -5412.0629    
     55000  -3503933.3     -3503964.9      31.622147      578.34414     -1691.5217    
     55100  -3503933.3     -3503964.3      30.918131      565.46824     -82.400536    
     55200  -3503933.3     -3503964.8      31.435303      574.92692     -3908.2035    
     55300  -3503933.3     -3503962.8      29.544032      540.33707     -1771.2165    
     55400  -3503933.1     -3503963.3      30.207859      552.47793     -5792.3243    
     55500  -3503932.9     -3503962.9      30.026228      549.15605     -177.85189    
     55600  -3503932.6     -3503963        30.441969      556.75962     -1501.7961    
     55700  -3503932.2     -3503964.6      32.396104      592.49921     -2627.8491    
     55800  -3503931.7     -3503963.9      32.167172      588.31223     -2084.729     
     55900  -3503931.1     -3503962.4      31.232896      571.22505     -984.29447    
     56000  -3503930.5     -3503962.6      32.026669      585.74255     -4633.0722    
     56100  -3503930       -3503963.1      33.150398      606.29466     -2702.135     
     56200  -3503929.5     -3503962.1      32.588141      596.01141     -2988.7453    
     56300  -3503929.2     -3503962.1      32.903217      601.77391     -3964.1972    
     56400  -3503929       -3503962.4      33.385049      610.58623     -2429.8716    
     56500  -3503929       -3503962.2      33.148729      606.26414     -2819.3925    
     56600  -3503929.1     -3503962.2      33.046836      604.40059     -3113.5068    
     56700  -3503929.3     -3503962.6      33.230955      607.76799     -1122.5777    
     56800  -3503929.6     -3503961.1      31.491581      575.95621     -2725.2436    
     56900  -3503929.8     -3503962.1      32.296606      590.67948     -6066.5511    
     57000  -3503930.1     -3503961        30.917617      565.45884     -2376.4801    
     57100  -3503930.4     -3503964        33.662707      615.66438     -2986.9126    
     57200  -3503930.7     -3503961.6      30.981337      566.62423     -2370.6571    
     57300  -3503931       -3503962.5      31.540242      576.84617     -3509.318     
     57400  -3503931.3     -3503965.6      34.356154      628.34698     -2537.6887    
     57500  -3503931.6     -3503963.5      31.951352      584.36505     -1568.7415    
     57600  -3503931.9     -3503964.9      32.932147      602.30302     -3248.2467    
     57700  -3503932.2     -3503963.1      30.895065      565.0464      -3386.3082    
     57800  -3503932.5     -3503964.7      32.152373      588.04156     -423.53989    
     57900  -3503932.8     -3503966.7      33.918785      620.34785     -1138.3347    
     58000  -3503933       -3503963.5      30.536198      558.48301     -6090.8866    
     58100  -3503933.2     -3503965.2      32.069713      586.52978     -3937.7071    
     58200  -3503933.3     -3503963.9      30.612535      559.87914     -1130.7838    
     58300  -3503933.4     -3503965        31.614846      578.21062     -3892.794     
     58400  -3503933.5     -3503964.5      31.02159       567.36044     -2908.7027    
     58500  -3503933.6     -3503963.7      30.153567      551.48497     -125.87216    
     58600  -3503933.7     -3503963.9      30.244632      553.15048     -5975.0787    
     58700  -3503933.8     -3503964.5      30.671678      560.96083     -2206.0313    
     58800  -3503933.9     -3503966.6      32.66632       597.44125     -1684.8239    
     58900  -3503934.1     -3503964.6      30.450243      556.91094     -4426.6431    
     59000  -3503934.4     -3503964.4      29.995276      548.58996     -4676.8945    
     59100  -3503934.7     -3503964.1      29.400693      537.71551      1472.0207    
     59200  -3503935.1     -3503964.6      29.473703      539.0508      -7773.9823    
     59300  -3503935.6     -3503966.4      30.832616      563.90425     -5006.2152    
     59400  -3503936.1     -3503965.2      29.087215      531.98224     -616.48932    
     59500  -3503936.5     -3503966.7      30.152095      551.45805     -8261.3562    
     59600  -3503936.9     -3503967.6      30.773568      562.8243      -3760.5411    
     59700  -3503937.1     -3503965.9      28.82865       527.2533      -2980.2131    
     59800  -3503937.2     -3503965.3      28.093532      513.80857     -2334.3293    
     59900  -3503937.2     -3503966.2      29.034868      531.02486     -4795.2028    
     60000  -3503937.1     -3503966.2      29.120297      532.58728     -3887.3175    
     60100  -3503936.8     -3503966.5      29.683442      542.88677     -3957.5411    
     60200  -3503936.4     -3503965.7      29.244227      534.85386     -4726.9394    
     60300  -3503935.9     -3503965.9      29.941986      547.61533     -6031.5974    
     60400  -3503935.3     -3503965.5      30.191895      552.18596     -3108.8686    
     60500  -3503934.6     -3503963.5      28.925216      529.0194      -3014.463     
     60600  -3503934       -3503965.5      31.484422      575.82526     -4065.2662    
     60700  -3503933.6     -3503966.4      32.845958      600.7267      -3074.0583    
     60800  -3503933.3     -3503963.9      30.638093      560.34657     -771.93311    
     60900  -3503933       -3503963.1      30.102906      550.55843     -5219.3749    
     61000  -3503932.8     -3503963        30.172316      551.82789     -5813.1088    
     61100  -3503932.7     -3503963.1      30.391153      555.83025      711.59377    
     61200  -3503932.5     -3503963.3      30.789598      563.11749     -4942.7354    
     61300  -3503932.4     -3503963.9      31.4691        575.54504     -2962.9729    
     61400  -3503932.3     -3503964        31.629136      578.47197     -4817.1295    
     61500  -3503932.3     -3503964.1      31.810381      581.78679     -3010.0752    
     61600  -3503932.2     -3503964.9      32.681345      597.71605     -2773.7605    
     61700  -3503932.2     -3503964.3      32.111021      587.28526     -2246.5413    
     61800  -3503932.3     -3503963.8      31.515061      576.38563     -2310.1589    
     61900  -3503932.4     -3503964.8      32.386256      592.31911     -4768.766     
     62000  -3503932.7     -3503964.6      31.855845      582.6183      -4745.877     
     62100  -3503933.1     -3503964.4      31.220256      570.99389     -1299.8477    
     62200  -3503933.7     -3503963.5      29.723458      543.61863     -4580.4913    
     62300  -3503934.5     -3503964.1      29.543983      540.33617     -2918.2201    
     62400  -3503935.3     -3503965.9      30.597011      559.59521     -5199.541     
     62500  -3503936       -3503966.2      30.258574      553.40547     -3291.7156    
     62600  -3503936.4     -3503965.6      29.183121      533.73629     -4409.4305    
     62700  -3503936.7     -3503966.9      30.185844      552.0753      -5675.0073    
     62800  -3503936.8     -3503967.3      30.538196      558.51954     -2033.562     
     62900  -3503936.8     -3503965.9      29.072188      531.70741     -929.98433    
     63000  -3503936.8     -3503967.3      30.495562      557.73981     -3576.8279    
     63100  -3503936.7     -3503967.3      30.589033      559.4493      -243.93597    
     63200  -3503936.6     -3503967.3      30.662959      560.80135     -1176.6555    
     63300  -3503936.5     -3503965.6      29.109927      532.39762     -2189.5857    
     63400  -3503936.3     -3503966.4      30.143187      551.29514     -5615.4216    
     63500  -3503936       -3503965.9      29.806532      545.13798     -3948.1714    
     63600  -3503935.7     -3503965        29.26518       535.23708     -4047.1503    
     63700  -3503935.3     -3503965.6      30.300936      554.18025     -3217.7328    
     63800  -3503934.9     -3503965.6      30.642065      560.41922     -3821.344     
     63900  -3503934.5     -3503963.3      28.836047      527.38857     -4578.2943    
     64000  -3503934.1     -3503966.4      32.296509      590.6777      -4783.4247    
     64100  -3503933.7     -3503965.2      31.48869       575.90333     -4414.9445    
     64200  -3503933.4     -3503964.8      31.343667      573.25096      158.52756    
     64300  -3503933.2     -3503962.9      29.747995      544.06738     -2394.5235    
     64400  -3503933       -3503963.7      30.712192      561.70179     -4646.9363    
     64500  -3503932.9     -3503965.3      32.38748       592.34148     -3825.7339    
     64600  -3503932.8     -3503963.7      30.919717      565.49725     -1309.7698    
     64700  -3503932.7     -3503963.4      30.695387      561.39445     -3155.1898    
     64800  -3503932.7     -3503963.6      30.84059       564.05008     -4155.2144    
     64900  -3503932.9     -3503964        31.055535      567.98127     -4957.1847    
     65000  -3503933.4     -3503964.4      30.9521        566.08952     -3561.4313    
     65100  -3503934.3     -3503964.2      29.874651      546.38382     -566.99943    
     65200  -3503935.3     -3503965.8      30.520544      558.19669     -4231.725     
     65300  -3503936.1     -3503966.5      30.435892      556.64847     -4447.9213    
     65400  -3503936.7     -3503966.5      29.831153      545.58828     -1008.7013    
     65500  -3503937.2     -3503966.8      29.623386      541.78839     -3450.0542    
     65600  -3503937.5     -3503965.2      27.668082      506.02742     -6641.4326    
     65700  -3503937.8     -3503968.3      30.567275      559.05137     -1523.8582    
     65800  -3503937.9     -3503966.6      28.662935      524.2225      -4590.1111    
     65900  -3503938.1     -3503967.8      29.714226      543.44978     -3756.4246    
     66000  -3503938.1     -3503967.1      28.950785      529.48704     -5602.7619    
     66100  -3503938.1     -3503967.2      29.140187      532.95107     -2673.5704    
     66200  -3503938       -3503967.2      29.163902      533.38478     -3596.8486    
     66300  -3503937.8     -3503967        29.171181      533.51792     -4294.7996    
     66400  -3503937.6     -3503966.9      29.312855      536.10902     -4333.1829    
     66500  -3503937.2     -3503968        30.767637      562.71583     -2141.172     
     66600  -3503936.8     -3503967        30.240848      553.08128     -4239.9102    
     66700  -3503936.4     -3503966.6      30.215754      552.62233     -5176.7665    
     66800  -3503935.9     -3503965.7      29.834975      545.65819     -1643.1189    
     66900  -3503935.5     -3503965.5      30.012839      548.91117     -3868.3928    
     67000  -3503935.1     -3503965.3      30.165741      551.70763     -5030.709     
     67100  -3503934.8     -3503966        31.273272      571.96351     -3984.9655    
     67200  -3503934.5     -3503966.1      31.658073      579.00121     -3950.1468    
     67300  -3503934.3     -3503966        31.674571      579.30294     -2419.3316    
     67400  -3503934.2     -3503964.5      30.294532      554.06313     -5421.1428    
     67500  -3503934.1     -3503963.9      29.705921      543.29789     -1738.0963    
     67600  -3503934.1     -3503964        29.864773      546.20317     -3601.6593    
     67700  -3503934.2     -3503966.6      32.408436      592.72476     -4170.8581    
     67800  -3503934.4     -3503965.1      30.65953       560.73863     -3982.5602    
     67900  -3503934.7     -3503965.5      30.746407      562.32755     -6643.061     
     68000  -3503935.3     -3503966.4      31.098416      568.76553     -4330.3781    
     68100  -3503936       -3503966.8      30.747148      562.34112     -4788.2479    
     68200  -3503937       -3503964.9      27.95911       511.35009     -2689.0653    
     68300  -3503937.8     -3503967.7      29.898107      546.81282     -5152.8104    
     68400  -3503938.4     -3503968.9      30.533413      558.43206     -4552.9331    
     68500  -3503938.7     -3503967.6      28.918135      528.8899      -3541.3755    
     68600  -3503938.9     -3503965.4      26.525301      485.12685     -3870.8258    
     68700  -3503939       -3503967.3      28.36577       518.78758     -3740.957     
     68800  -3503939       -3503967.4      28.462631      520.5591      -2421.6828    
     68900  -3503938.9     -3503968.7      29.847088      545.87971     -3143.5972    
     69000  -3503938.8     -3503967.9      29.097604      532.17224     -4904.5423    
     69100  -3503938.6     -3503968.4      29.846335      545.86595     -1813.2479    
     69200  -3503938.4     -3503966.2      27.791198      508.27911     -6680.3833    
     69300  -3503938.2     -3503968        29.786779      544.77672     -3898.0034    
     69400  -3503938       -3503967.3      29.323376      536.30144     -5512.2618    
     69500  -3503937.6     -3503966.6      28.961582      529.68452     -3270.5701    
     69600  -3503937.2     -3503965.9      28.726945      525.39319     -3466.647     
     69700  -3503936.7     -3503967.3      30.536677      558.49175     -6306.5728    
     69800  -3503936.2     -3503967.2      31.014842      567.23703     -3776.8745    
     69900  -3503935.8     -3503967.3      31.542193      576.88185     -3623.9566    
     70000  -3503935.4     -3503964.5      29.107841      532.35947     -8083.3961    
     70100  -3503935.2     -3503965.7      30.509037      557.98625     -3248.3241    
     70200  -3503935.1     -3503964.9      29.754473      544.18587     -3554.4008    
     70300  -3503935.1     -3503965.7      30.645743      560.48648     -4893.7714    
     70400  -3503935.2     -3503964.7      29.470993      539.00125     -3655.02      
     70500  -3503935.4     -3503966.8      31.462644      575.42696     -6105.5482    
     70600  -3503935.6     -3503964.5      28.884504      528.27482     -3015.4172    
     70700  -3503935.9     -3503967.5      31.67274       579.26946     -2914.2364    
     70800  -3503936.2     -3503965.1      28.94325       529.34924     -2748.8804    
     70900  -3503936.5     -3503966.5      30.058802      549.75181     -4452.4924    
     71000  -3503936.7     -3503966.5      29.788348      544.8054      -4560.8075    
     71100  -3503936.9     -3503967.4      30.436852      556.66604     -3859.1167    
     71200  -3503937.1     -3503967.2      30.079376      550.12808     -3217.3065    
     71300  -3503937.2     -3503965.9      28.622832      523.48905     -4893.5001    
     71400  -3503937.3     -3503966.6      29.313549      536.12172     -1525.7477    
     71500  -3503937.4     -3503968.2      30.792593      563.17226     -5136.7147    
     71600  -3503937.5     -3503966.5      28.976106      529.95015     -1910.4948    
     71700  -3503937.6     -3503966.9      29.310165      536.05982     -2944.307     
     71800  -3503937.7     -3503967.9      30.149536      551.41125     -8467.5416    
     71900  -3503937.8     -3503966.3      28.4875        521.01392     -3971.4453    
     72000  -3503938       -3503967.7      29.718026      543.51928     -7092.0204    
     72100  -3503938.2     -3503966.3      28.083137      513.61844     -3664.9913    
     72200  -3503938.4     -3503967.6      29.228563      534.56738     -2605.8485    
     72300  -3503938.7     -3503967.3      28.606823      523.19625     -3930.0443    
     72400  -3503939       -3503968.8      29.866643      546.23736     -2738.4729    
     72500  -3503939.4     -3503968.3      28.90111       528.57853     -4839.9161    
     72600  -3503939.8     -3503969.7      29.899419      546.83681     -3306.1693    
     72700  -3503940.3     -3503968.5      28.224297      516.20016     -2362.4937    
     72800  -3503940.7     -3503968.9      28.245925      516.59571     -4952.9688    
     72900  -3503941       -3503969.6      28.590305      522.89415     -2908.2668    
     73000  -3503941.3     -3503969.9      28.614142      523.33011     -5109.5917    
     73100  -3503941.5     -3503968.9      27.345597      500.12942     -1892.1283    
     73200  -3503941.7     -3503969.8      28.136793      514.59977     -5665.02      
     73300  -3503941.8     -3503969.7      27.932891      510.87057     -4492.9134    
     73400  -3503941.8     -3503969        27.178618      497.0755      -3809.6483    
     73500  -3503941.7     -3503970.3      28.627554      523.57541     -6664.2484    
     73600  -3503941.4     -3503968.2      26.749462      489.22658     -1625.5929    
     73700  -3503940.9     -3503967.8      26.935279      492.62503     -8105.5502    
     73800  -3503940.1     -3503967.4      27.295224      499.20815     -4670.8375    
     73900  -3503939.2     -3503968        28.816098      527.02373     -2631.1197    
     74000  -3503938.4     -3503966.1      27.700411      506.61869     -6435.9823    
     74100  -3503937.9     -3503967.4      29.537677      540.22083     -2452.8564    
     74200  -3503937.6     -3503967.5      29.930563      547.40641     -3625.6862    
     74300  -3503937.3     -3503966.9      29.580923      541.01178     -5273.9835    
     74400  -3503937.1     -3503966.9      29.822678      545.43329     -4287.433     
     74500  -3503937       -3503965.8      28.709376      525.07187     -3561.2033    
     74600  -3503937       -3503967.4      30.350609      555.08872     -6375.5239    
     74700  -3503937.1     -3503966.1      28.979652      530.015       -5403.1534    
     74800  -3503937.3     -3503968.4      31.11798       569.12333     -3027.813     
     74900  -3503937.5     -3503965.9      28.341832      518.34978     -6489.0781    
     75000  -3503937.9     -3503966.1      28.192864      515.62526     -3975.0133    
     75100  -3503938.4     -3503969.1      30.7362        562.14088     -4991.2276    
     75200  -3503939       -3503968.2      29.241485      534.80371     -4335.8235    
     75300  -3503939.5     -3503968.3      28.717222      525.21535     -2025.6214    
     75400  -3503940       -3503967.7      27.63397       505.40353     -5869.5834    
     75500  -3503940.4     -3503968.3      27.867827      509.6806      -3020.8531    
     75600  -3503940.6     -3503967.7      27.065703      495.01037     -3484.4908    
     75700  -3503940.7     -3503967.6      26.892594      491.84436     -9688.8494    
     75800  -3503940.8     -3503968.9      28.152126      514.88019     -4994.0651    
     75900  -3503940.7     -3503968.8      28.080502      513.57026     -5538.8627    
     76000  -3503940.6     -3503967.4      26.869896      491.42922     -4092.9911    
     76100  -3503940.4     -3503968.4      28.00157       512.12664     -2259.0437    
     76200  -3503940.1     -3503968.8      28.720002      525.2662      -5116.2615    
     76300  -3503939.8     -3503969        29.114379      532.47905     -3724.8831    
     76400  -3503939.6     -3503968.2      28.599431      523.06106     -6175.4211    
     76500  -3503939.3     -3503968.5      29.169768      533.49208     -5350.9437    
     76600  -3503939.1     -3503967.2      28.076726      513.5012      -4885.9508    
     76700  -3503938.9     -3503967        28.17284       515.25905     -4016.5095    
     76800  -3503938.6     -3503967.5      28.839187      527.446       -5147.0433    
     76900  -3503938.5     -3503967.6      29.104949      532.30657     -1144.6141    
     77000  -3503938.4     -3503966.2      27.765683      507.81246     -3320.0393    
     77100  -3503938.4     -3503966.8      28.400272      519.41859     -2719.0691    
     77200  -3503938.3     -3503967.1      28.769987      526.18039     -3689.3322    
     77300  -3503938.4     -3503967.8      29.474267      539.06111     -5841.8985    
     77400  -3503938.5     -3503967.5      29.048963      531.28264     -3084.5687    
     77500  -3503938.7     -3503967.2      28.574517      522.60539     -2734.6121    
     77600  -3503939       -3503969.6      30.617047      559.96166     -3971.8596    
     77700  -3503939.4     -3503967        27.581114      504.43683     -6911.6901    
     77800  -3503939.9     -3503968.5      28.637342      523.75441     -3883.3334    
     77900  -3503940.4     -3503968.7      28.285631      517.32191     -4852.752     
     78000  -3503940.9     -3503969.7      28.801703      526.76046     -6399.8912    
     78100  -3503941.4     -3503967.5      26.141226      478.10242     -3691.5457    
     78200  -3503941.8     -3503971.7      29.903688      546.91489     -4508.2669    
     78300  -3503942.2     -3503970.3      28.165528      515.12531     -4383.1111    
     78400  -3503942.5     -3503970.3      27.810716      508.63609     -5393.7466    
     78500  -3503942.8     -3503969.9      27.144263      496.44719     -3441.499     
     78600  -3503943       -3503971.2      28.227816      516.26451     -5266.3072    
     78700  -3503943.1     -3503969.3      26.247439      480.04498     -4134.544     
     78800  -3503943.1     -3503970.2      27.105415      495.73668     -3657.0849    
     78900  -3503943.1     -3503970.1      26.985612      493.54558     -6880.3195    
     79000  -3503942.9     -3503970.3      27.402077      501.16239     -5601.2167    
     79100  -3503942.7     -3503969.9      27.201081      497.48633     -1898.449     
     79200  -3503942.4     -3503968.4      26.020078      475.88673     -7173.6447    
     79300  -3503942       -3503970.5      28.485136      520.9707      -4729.765     
     79400  -3503941.5     -3503970.8      29.30004       535.87465     -1576.1625    
     79500  -3503941       -3503968.9      27.863534      509.60208     -5621.9893    
     79600  -3503940.5     -3503970.1      29.611978      541.57974     -3284.431     
     79700  -3503940.1     -3503969.8      29.681076      542.84349     -2201.8096    
     79800  -3503939.9     -3503968.9      29.044955      531.20935     -4241.0572    
     79900  -3503939.7     -3503967.1      27.37915       500.74308     -3291.9057    
     80000  -3503939.6     -3503969        29.331051      536.4418      -2127.9625    
     80100  -3503939.7     -3503968.8      29.113622      532.4652      -4570.8226    
     80200  -3503939.9     -3503969.3      29.462997      538.85501     -3421.7387    
     80300  -3503940.1     -3503968.9      28.794049      526.62046     -4741.0925    
     80400  -3503940.4     -3503969.5      29.131148      532.78574     -4514.3908    
     80500  -3503940.7     -3503969.8      29.110255      532.40363     -3859.8961    
     80600  -3503941       -3503970        29.0262        530.86632     -3437.7273    
     80700  -3503941.3     -3503969        27.702024      506.64819     -1562.3255    
     80800  -3503941.5     -3503969.7      28.196057      515.68366     -3708.0917    
     80900  -3503941.7     -3503970.5      28.794222      526.62362     -3359.9469    
     81000  -3503941.8     -3503969        27.125025      496.09534     -2333.0792    
     81100  -3503941.9     -3503969.5      27.608757      504.9424      -4659.371     
     81200  -3503942.1     -3503969.6      27.53811       503.65032     -1865.9813    
     81300  -3503942.1     -3503970        27.814789      508.71057     -2657.0369    
     81400  -3503942.2     -3503968.4      26.180762      478.82551     -1978.3265    
     81500  -3503942.3     -3503970.9      28.550198      522.16062     -5261.6112    
     81600  -3503942.4     -3503970.2      27.799601      508.4328      -2659.4494    
     81700  -3503942.5     -3503969.4      26.956507      493.01328     -4597.5602    
     81800  -3503942.6     -3503969.4      26.838939      490.86305     -2127.5131    
     81900  -3503942.7     -3503970        27.288438      499.08402     -3382.4895    
     82000  -3503942.7     -3503970.8      28.079901      513.55926     -2934.4229    
     82100  -3503942.8     -3503971        28.179881      515.38782     -3798.4775    
     82200  -3503942.8     -3503969.7      26.924158      492.42164     -2525.2423    
     82300  -3503942.7     -3503969.3      26.562155      485.80088     -2350.9874    
     82400  -3503942.6     -3503968.7      26.067706      476.75781     -3938.244     
     82500  -3503942.3     -3503969.9      27.574541      504.31663     -476.21269    
     82600  -3503942       -3503968.7      26.780509      489.79441     -4853.5938    
     82700  -3503941.5     -3503969.1      27.661008      505.89803     -2136.6467    
     82800  -3503940.9     -3503967.6      26.650222      487.41157     -2016.1909    
     82900  -3503940.4     -3503969.2      28.78836       526.51641     -2271.2621    
     83000  -3503940       -3503968.6      28.630167      523.62319     -853.97602    
     83100  -3503939.7     -3503969.3      29.596852      541.3031      -3648.1311    
     83200  -3503939.5     -3503968.1      28.585235      522.80141     -2281.26      
     83300  -3503939.5     -3503966.8      27.323913      499.73284     -5591.9185    
     83400  -3503939.6     -3503969.9      30.326755      554.65245     -4066.2692    
     83500  -3503939.8     -3503968.1      28.213723      516.00677     -2370.5808    
     83600  -3503940.2     -3503968.9      28.618977      523.41853     -6019.459     
     83700  -3503940.8     -3503969.4      28.633716      523.68811     -3934.8506    
     83800  -3503941.4     -3503969.6      28.224346      516.20104     -4117.0514    
     83900  -3503942       -3503969.1      27.061011      494.92456     -2492.0955    
     84000  -3503942.5     -3503971.1      28.630241      523.62454     -1658.9813    
     84100  -3503942.8     -3503969.1      26.286552      480.76033     -7322.9837    
     84200  -3503943.1     -3503969.8      26.774792      489.68985     -3011.0775    
     84300  -3503943.2     -3503971.5      28.276814      517.16064     -3078.1001    
     84400  -3503943.3     -3503971.4      28.157843      514.98475     -3297.0697    
     84500  -3503943.3     -3503970.7      27.354533      500.29286     -1924.3487    
     84600  -3503943.3     -3503970.7      27.336986      499.97194     -5021.8076    
     84700  -3503943.4     -3503968.9      25.510466      466.56632     -3254.3983    
     84800  -3503943.3     -3503969.4      26.078926      476.963       -3656.6038    
     84900  -3503943.3     -3503970.2      26.940517      492.72083     -2372.6665    
     85000  -3503943.2     -3503970.4      27.123363      496.06494     -2790.582     
     85100  -3503943.2     -3503969.5      26.391793      482.6851      -4617.4468    
     85200  -3503943.1     -3503969.3      26.211252      479.38314     -5782.712     
     85300  -3503943       -3503969.2      26.155159      478.35724     -1353.2509    
     85400  -3503943       -3503969.7      26.688327      488.10846     -2153.4814    
     85500  -3503942.9     -3503970.2      27.285251      499.02575     -4247.8958    
     85600  -3503942.9     -3503971.6      28.781008      526.38196     -4503.5272    
     85700  -3503942.9     -3503969.6      26.75802       489.38309     -1952.7514    
     85800  -3503942.8     -3503970.3      27.431447      501.69955     -6763.8099    
     85900  -3503942.9     -3503970        27.090672      495.46704     -2626.2101    
     86000  -3503943       -3503969.3      26.29567       480.92708     -3479.6254    
     86100  -3503943.1     -3503968.4      25.310011      462.90016     -2555.4562    
     86200  -3503943.3     -3503970.6      27.322514      499.70724     -2887.4983    
     86300  -3503943.4     -3503970.1      26.671352      487.79801     -7066.4895    
     86400  -3503943.7     -3503971.3      27.587593      504.55534     -3788.0807    
     86500  -3503944       -3503971.1      27.182277      497.14243     -220.50026    
     86600  -3503944.2     -3503972        27.759052      507.69118     -5721.5912    
[...]
    228800  -3503968.4     -3503986.1      17.672856      323.2226      -2113.8609    
    228900  -3503968.6     -3503986.1      17.533952      320.68217      2152.504     
    229000  -3503968.8     -3503985.3      16.403305      300.00353     -2366.441     
    229100  -3503969.2     -3503986.4      17.276904      315.98097      2509.674     
    229200  -3503969.5     -3503986.3      16.782501      306.93872     -586.83795    
    229300  -3503969.8     -3503986.6      16.854483      308.25521     -1789.4528    
    229400  -3503970.1     -3503986        15.979643      292.25509      604.9493     
    229500  -3503970.2     -3503986.2      15.937103      291.47705     -1675.7113    
    229600  -3503970.4     -3503987        16.601634      303.63081     -569.89816    
    229700  -3503970.5     -3503986.8      16.336208      298.77638      1592.1904    
    229800  -3503970.5     -3503987.1      16.548682      302.66236      620.59087    
    229900  -3503970.6     -3503986.8      16.143827      295.25787     -2186.544     
    230000  -3503970.6     -3503986.7      16.086233      294.20452      1551.9694    
    230100  -3503970.7     -3503987        16.307632      298.25373     -2942.5059    
    230200  -3503970.6     -3503986.3      15.68229       286.81674      2561.9059    
    230300  -3503970.6     -3503986.8      16.180343      295.92571     -106.24721    
    230400  -3503970.6     -3503986.9      16.365079      299.30439     -573.49515    
    230500  -3503970.5     -3503986.8      16.277855      297.70915     -2115.5684    
    230600  -3503970.4     -3503986.6      16.218144      296.61707      1753.5354    
    230700  -3503970.3     -3503986.8      16.466807      301.16493     -737.88476    
    230800  -3503970.1     -3503986.6      16.462137      301.07952      274.94996    
    230900  -3503969.9     -3503986        16.078059      294.05502      730.4147     
    231000  -3503969.6     -3503986        16.369215      299.38005      361.47162    
    231100  -3503969.3     -3503985.9      16.668169      304.84767      632.7658     
    231200  -3503968.8     -3503984.8      15.964794      291.9835       1524.1814    
    231300  -3503968.4     -3503985        16.560155      302.87219     -1335.8323    
    231400  -3503968.2     -3503986.2      17.99385       329.09333      1096.8922    
    231500  -3503968       -3503984.6      16.58571       303.33956      712.38528    
    231600  -3503967.9     -3503985.8      17.850506      326.4717      -2102.079     
    231700  -3503968       -3503985.9      17.861126      326.66591      1463.3377    
    231800  -3503968.1     -3503985        16.964064      310.25936     -2585.0611    
    231900  -3503968.2     -3503985.8      17.557306      321.10929      562.73034    
    232000  -3503968.4     -3503985.6      17.107622      312.88492      123.80263    
    232100  -3503968.7     -3503985.1      16.40164       299.97308      146.86375    
    232200  -3503969       -3503985.5      16.482848      301.4583       530.0126     
    232300  -3503969.3     -3503986.7      17.393762      318.11819      18.428826    
    232400  -3503969.5     -3503986.1      16.538592      302.47782     -823.60978    
    232500  -3503969.7     -3503985.8      16.114453      294.72064     -534.6743     
    232600  -3503969.8     -3503986.3      16.510176      301.95811     -769.82618    
    232700  -3503969.9     -3503987        17.127744      313.25294      1338.2302    
    232800  -3503970       -3503986.1      16.13705       295.13393     -1124.7493    
    232900  -3503970.1     -3503986        15.969938      292.07758     -827.79606    
    233000  -3503970.1     -3503986.2      16.090087      294.27502      1533.5538    
    233100  -3503970.1     -3503986.3      16.175212      295.83189     -3748.8091    
    233200  -3503970.1     -3503986.5      16.408081      300.09087      2068.4246    
    233300  -3503970.1     -3503986.1      16.026925      293.11982      834.53056    
    233400  -3503970.1     -3503986.3      16.209903      296.46636      1102.4333    
    233500  -3503970.1     -3503986        15.945558      291.6317       990.09564    
    233600  -3503970.1     -3503987.1      17.006255      311.031        781.97663    
    233700  -3503970.1     -3503986.3      16.199937      296.28408      241.75012    
    233800  -3503970.1     -3503986.4      16.364974      299.30247     -3027.3313    
    233900  -3503970       -3503986.2      16.257232      297.33197      2161.5015    
    234000  -3503970       -3503985.7      15.738638      287.84728     -993.32213    
    234100  -3503969.9     -3503985.6      15.665664      286.51264     -256.86071    
    234200  -3503969.9     -3503986.4      16.565563      302.97109      926.27599    
    234300  -3503969.8     -3503985.7      15.918432      291.13558     -567.29165    
    234400  -3503969.7     -3503985.9      16.222963      296.70521      1536.9969    
    234500  -3503969.6     -3503986.7      17.070651      312.20875     -1467.9646    
    234600  -3503969.6     -3503986.4      16.817018      307.57002      292.98354    
    234700  -3503969.5     -3503986.3      16.809541      307.43325     -1704.3244    
    234800  -3503969.5     -3503986.3      16.804919      307.34872      3454.7425    
    234900  -3503969.5     -3503986.7      17.244469      315.38775      429.85411    
    235000  -3503969.5     -3503986.8      17.277827      315.99783     -920.67254    
    235100  -3503969.7     -3503986.2      16.512492      302.00047     -692.56125    
    235200  -3503969.8     -3503986.1      16.331188      298.68456      1526.3535    
    235300  -3503970.1     -3503985.8      15.7585        288.21054     -752.93167    
    235400  -3503970.3     -3503986.2      15.960071      291.89712      1034.5556    
    235500  -3503970.6     -3503986.7      16.185351      296.01732      477.11614    
    235600  -3503970.8     -3503987        16.200764      296.29921     -1170.8794    
    235700  -3503971.1     -3503988.2      17.140293      313.48245     -1324.2545    
    235800  -3503971.3     -3503986.9      15.56041       284.58764      1787.3887    
    235900  -3503971.4     -3503987.7      16.244408      297.09742     -2064.3272    
    236000  -3503971.5     -3503987.8      16.285477      297.84855      2226.055     
    236100  -3503971.6     -3503987.4      15.863966      290.13944     -127.18653    
    236200  -3503971.6     -3503987.9      16.279468      297.73864      1301.3407    
    236300  -3503971.5     -3503987.3      15.869838      290.24684     -2698.1908    
    236400  -3503971.3     -3503987.9      16.528401      302.29142      5.7601659    
    236500  -3503971.2     -3503987.2      16.051829      293.5753       1541.0471    
    236600  -3503970.9     -3503986.9      15.926008      291.27414     -98.585325    
    236700  -3503970.6     -3503987.2      16.586566      303.35521     -1366.8854    
    236800  -3503970.2     -3503986.9      16.632863      304.20196      873.1409     
    236900  -3503969.9     -3503986.7      16.843204      308.04893     -255.0382     
    237000  -3503969.6     -3503986.6      16.961533      310.21308     -485.24258    
    237100  -3503969.4     -3503986.7      17.287323      316.17151     -64.294125    
    237200  -3503969.3     -3503986.6      17.272189      315.89472     -181.66437    
    237300  -3503969.3     -3503986        16.672982      304.9357      -885.1965     
    237400  -3503969.3     -3503986.1      16.780663      306.9051      -777.00198    
    237500  -3503969.4     -3503986        16.668811      304.85941      239.92239    
    237600  -3503969.4     -3503985.8      16.360919      299.22831      1797.6506    
    237700  -3503969.5     -3503987.2      17.657555      322.94277     -1075.1275    
    237800  -3503969.6     -3503987.4      17.79557       325.46695      97.677349    
    237900  -3503969.8     -3503987.5      17.704031      323.79278     -618.98305    
    238000  -3503969.9     -3503986.7      16.765707      306.63156      950.91547    
    238100  -3503970.1     -3503987        16.949704      309.99672     -472.97241    
    238200  -3503970.3     -3503986.5      16.187838      296.0628       594.96646    
    238300  -3503970.5     -3503986.6      16.109744      294.63452     -251.34566    
    238400  -3503970.6     -3503988        17.326438      316.88689      868.38323    
    238500  -3503970.8     -3503987.5      16.673931      304.95305      1443.3727    
    238600  -3503971       -3503987        16.034485      293.25809     -339.34763    
    238700  -3503971.1     -3503986.9      15.751602      288.08439      2206.9271    
    238800  -3503971.3     -3503987.5      16.214853      296.55688     -2418.4769    
    238900  -3503971.4     -3503988.2      16.800524      307.26834      1034.1667    
    239000  -3503971.5     -3503987.8      16.285382      297.84681      987.96635    
    239100  -3503971.6     -3503987.9      16.281908      297.78327     -142.63175    
    239200  -3503971.7     -3503988.4      16.719435      305.7853      -365.02414    
    239300  -3503971.6     -3503987.3      15.646919      286.16981      149.73066    
    239400  -3503971.6     -3503988        16.38481       299.66527     -98.297282    
    239500  -3503971.6     -3503987.8      16.16718       295.68499     -684.85379    
    239600  -3503971.5     -3503987.8      16.236646      296.95546      1006.2756    
    239700  -3503971.4     -3503987.5      16.106095      294.56779      1172.4062    
    239800  -3503971.1     -3503987.5      16.342371      298.88909      316.50235    
    239900  -3503970.9     -3503987.2      16.349585      299.02102     -418.32214    
    240000  -3503970.5     -3503986.5      16.004479      292.70932     -1550.8141    
    240100  -3503970.2     -3503987        16.823526      307.68903      3272.6093    
    240200  -3503970       -3503988.2      18.217713      333.18762     -2170.5587    
    240300  -3503969.7     -3503986.9      17.199781      314.57045     -779.84445    
    240400  -3503969.6     -3503986.9      17.298186      316.37019      976.91435    
    240500  -3503969.5     -3503986.5      17.034512      311.54781     -2496.1245    
    240600  -3503969.4     -3503986.6      17.171772      314.05817      3026.8812    
    240700  -3503969.4     -3503985.7      16.322593      298.52736     -3261.9625    
    240800  -3503969.4     -3503986.3      16.839504      307.98125      110.1102     
    240900  -3503969.6     -3503985.7      16.049749      293.53727      337.23154    
    241000  -3503969.8     -3503986.5      16.749351      306.33243     -3909.9964    
    241100  -3503970       -3503986.7      16.734989      306.06976      1157.5339    
    241200  -3503970.3     -3503987.8      17.479742      319.69071     -2005.0111    
    241300  -3503970.6     -3503988        17.386718      317.98937      705.75163    
    241400  -3503970.9     -3503987.5      16.61201       303.82057      584.90089    
    241500  -3503971.2     -3503986.5      15.378377      281.25839     -109.48544    
    241600  -3503971.4     -3503988        16.604147      303.67676      619.06058    
    241700  -3503971.6     -3503987        15.393948      281.54318     -1573.8984    
    241800  -3503971.6     -3503987.4      15.806314      289.08503     -1679.2801    
    241900  -3503971.7     -3503987.9      16.162467      295.59878      603.74019    
    242000  -3503971.7     -3503987.1      15.469634      282.92741      1076.4434    
    242100  -3503971.6     -3503987.3      15.725605      287.60893     -19.54766     
    242200  -3503971.6     -3503986.6      15.026278      274.81879     -1940.9734    
    242300  -3503971.5     -3503987.3      15.781968      288.63977     -61.179467    
    242400  -3503971.3     -3503987.6      16.250652      297.21162      1948.1284    
    242500  -3503971.2     -3503986.9      15.766633      288.3593       304.6689     
    242600  -3503971       -3503987.1      16.017198      292.94193     -1277.3618    
    242700  -3503970.9     -3503986.9      15.969936      292.07755     -183.06134    
    242800  -3503970.8     -3503987.5      16.685781      305.16978      774.86699    
    242900  -3503970.7     -3503987.1      16.408366      300.09609     -105.0055     
    243000  -3503970.6     -3503986.8      16.155363      295.46885     -1637.0073    
    243100  -3503970.6     -3503987        16.386342      299.69329      949.67628    
    243200  -3503970.6     -3503986.9      16.313494      298.36096     -1161.78      
    243300  -3503970.6     -3503986.6      16.02325       293.05261     -427.65609    
    243400  -3503970.6     -3503987.7      17.100482      312.75434      1438.6948    
    243500  -3503970.6     -3503986.8      16.231926      296.86914      1077.9872    
    243600  -3503970.7     -3503986.6      15.909875      290.97907     -1095.2475    
    243700  -3503970.7     -3503986.8      16.088533      294.24659     -211.1997     
    243800  -3503970.7     -3503986.7      15.98336       292.32306     -663.17942    
    243900  -3503970.7     -3503986.9      16.170192      295.74007      766.32388    
    244000  -3503970.7     -3503986.9      16.169944      295.73554     -3115.3053    
    244100  -3503970.8     -3503987.3      16.500464      301.78048      1852.9935    
    244200  -3503970.7     -3503987.1      16.381957      299.61308     -131.51127    
    244300  -3503970.7     -3503987.1      16.370298      299.39984      925.66013    
    244400  -3503970.7     -3503986.6      15.851014      289.90256     -361.87783    
    244500  -3503970.7     -3503986.8      16.1555        295.47136     -516.93289    
    244600  -3503970.7     -3503987        16.322937      298.53365      3167.7654    
    244700  -3503970.6     -3503986.2      15.600205      285.31546     -1527.0756    
    244800  -3503970.6     -3503987        16.346484      298.96431      878.54393    
    244900  -3503970.6     -3503987        16.389291      299.74722      1820.6288    
    245000  -3503970.6     -3503987.1      16.521744      302.16967     -551.16139    
    245100  -3503970.6     -3503987.5      16.861431      308.38229      461.71998    
    245200  -3503970.6     -3503987.7      17.012116      311.13819     -123.88919    
    245300  -3503970.7     -3503986.7      16.020891      293.00947     -444.36005    
    245400  -3503970.9     -3503987.2      16.296379      298.04794     -661.63298    
    245500  -3503971.1     -3503987.1      16.074776      293.99499      1822.9665    
    245600  -3503971.4     -3503987.2      15.793985      288.85953     -362.09672    
    245700  -3503971.6     -3503986.6      14.946977      273.36843      1176.4532    
    245800  -3503971.9     -3503987        15.109259      276.33644      790.29103    
    245900  -3503972.1     -3503987.9      15.79078       288.80092     -2169.7017    
    246000  -3503972.3     -3503988.1      15.876501      290.36869      883.41163    
    246100  -3503972.4     -3503988.1      15.782408      288.64781     -3131.4795    
    246200  -3503972.4     -3503988.2      15.816432      289.27008      3610.4862    
    246300  -3503972.4     -3503988.6      16.201518      296.31299     -2596.7246    
    246400  -3503972.4     -3503987.9      15.50286       283.53509      1595.5708    
    246500  -3503972.2     -3503987.2      15.038552      275.04327      389.76374    
    246600  -3503972       -3503987.8      15.817445      289.2886      -1890.0203    
    246700  -3503971.8     -3503988.2      16.417678      300.2664       1995.9887    
    246800  -3503971.5     -3503987.8      16.302837      298.16603      40.266276    
    246900  -3503971.2     -3503988.1      16.933701      309.70405     -199.90379    
    247000  -3503970.9     -3503988        17.070778      312.21108     -2317.8974    
    247100  -3503970.7     -3503986.7      16.032122      293.21488      968.43515    
    247200  -3503970.5     -3503986.2      15.787384      288.73882     -2080.9019    
    247300  -3503970.3     -3503986.8      16.523996      302.21087     -2281.2262    
    247400  -3503970.2     -3503986.5      16.302913      298.16743      1518.6695    
    247500  -3503970.1     -3503986.5      16.361622      299.24118     -1768.639     
    247600  -3503970.1     -3503986.5      16.438976      300.65591     -1426.0251    
    247700  -3503970.1     -3503986.4      16.313123      298.35416      1350.3121    
    247800  -3503970.1     -3503987.6      17.415242      318.51105      1937.6786    
    247900  -3503970.2     -3503987.3      17.127103      313.24121     -119.50594    
    248000  -3503970.2     -3503986.6      16.369419      299.38378     -67.111065    
    248100  -3503970.4     -3503986.4      15.996298      292.55968      264.97242    
    248200  -3503970.5     -3503986.7      16.161269      295.57687     -1269.9311    
    248300  -3503970.6     -3503986.4      15.75466       288.14032      1481.5735    
    248400  -3503970.8     -3503987.6      16.754188      306.4209      -557.24458    
    248500  -3503971       -3503986.4      15.344675      280.64202     -800.28015    
    248600  -3503971.4     -3503987.6      16.239201      297.00218      1867.8634    
    248700  -3503971.8     -3503987.9      16.099771      294.45212      2069.8139    
    248800  -3503972.2     -3503987.8      15.595385      285.22731     -1411.1536    
    248900  -3503972.5     -3503988.8      16.255738      297.30464      1949.123     
    249000  -3503972.7     -3503987.8      15.041506      275.09729     -1273.2059    
    249100  -3503972.9     -3503989.1      16.164513      295.63621      1596.289     
    249200  -3503972.9     -3503988.6      15.709766      287.31925     -206.23229    
    249300  -3503972.9     -3503988.7      15.78707       288.73306      3519.421     
    249400  -3503972.8     -3503988.2      15.467463      282.88771     -1773.3671    
    249500  -3503972.7     -3503988.2      15.508425      283.63687     -798.57749    
    249600  -3503972.4     -3503988.3      15.873608      290.31579      3687.6589    
    249700  -3503972.2     -3503987.9      15.637195      285.99198     -2247.3272    
    249800  -3503972       -3503987.4      15.389344      281.45897      856.25308    
    249900  -3503971.9     -3503987.8      15.937653      291.48712     -2161.3085    
    250000  -3503971.7     -3503987.5      15.80554       289.07088      286.15548    
Loop time of 8590.47 on 72 procs for 50000 steps with 424 atoms

Performance: 1.006 ns/day, 23.862 hours/ns, 5.820 timesteps/s, 2.468 katom-step/s
94.2% CPU use with 72 MPI tasks x 1 OpenMP threads

MPI task timing breakdown:
Section |  min time  |  avg time  |  max time  |%varavg| %total
---------------------------------------------------------------
Pair    | 4411.4     | 6538.1     | 7989.2     |1080.1 | 76.11
Bond    | 0.028288   | 0.047738   | 0.071568   |   5.2 |  0.00
Neigh   | 0.060271   | 0.081291   | 0.1021     |   3.8 |  0.00
Comm    | 590.6      | 2041.9     | 4168.3     |1932.8 | 23.77
Output  | 0.066696   | 0.070644   | 0.3012     |  10.3 |  0.00
Modify  | 8.9198     | 9.2643     | 9.5706     |   6.3 |  0.11
Other   |            | 1.086      |            |       |  0.01

Nlocal:        5.88889 ave           9 max           3 min
Histogram: 3 7 0 20 0 16 18 0 7 1
Nghost:        395.042 ave         407 max         388 min
Histogram: 3 8 17 16 11 10 3 1 2 1
Neighs:              0 ave           0 max           0 min
Histogram: 72 0 0 0 0 0 0 0 0 0
FullNghs:      516.778 ave         765 max         255 min
Histogram: 3 6 1 20 2 14 6 12 5 3

Total # of neighbors = 37208
Ave neighs/atom = 87.754717
Ave special neighs/atom = 0
Neighbor list builds = 1598
Dangerous builds = 0
unfix npt_equ


write_restart restart.equil
System init for write_restart ...
quit
