LAMMPS (15 Sep 2022)
  using 1 OpenMP thread(s) per MPI task
Reading data file ...
LAMMPS (15 Sep 2022)
  using 1 OpenMP thread(s) per MPI task
Reading data file ...
  orthogonal box = (0 0 0) to (21.734239 21.737162 22.149205)
  3 by 4 by 6 MPI processor grid
  reading atoms ...
  400 atoms
Finding 1-2 1-3 1-4 neighbors ...
  special bond factors lj:    0        0        0       
  special bond factors coul:  0        0        0       
     0 = max # of 1-2 neighbors
     0 = max # of 1-3 neighbors
     0 = max # of 1-4 neighbors
     1 = max # of special neighbors
  special bonds CPU = 0.002 seconds
  read_data CPU = 0.026 seconds
New timer settings: style=normal  mode=nosync  timeout=00:00:00
150 atoms in group Li_atoms
50 atoms in group P_atoms
200 atoms in group S_atoms
  orthogonal box = (0 0 0) to (21.518679 21.525348 21.931303)
  3 by 4 by 6 MPI processor grid
  reading atoms ...
  400 atoms
Finding 1-2 1-3 1-4 neighbors ...
  special bond factors lj:    0        0        0       
  special bond factors coul:  0        0        0       
     0 = max # of 1-2 neighbors
     0 = max # of 1-3 neighbors
     0 = max # of 1-4 neighbors
     1 = max # of special neighbors
  special bonds CPU = 0.003 seconds
  read_data CPU = 0.044 seconds
New timer settings: style=normal  mode=nosync  timeout=00:00:00
150 atoms in group Li_atoms
50 atoms in group P_atoms
200 atoms in group S_atoms
LAMMPS (15 Sep 2022)
  using 1 OpenMP thread(s) per MPI task
LAMMPS (15 Sep 2022)
  using 1 OpenMP thread(s) per MPI task
Reading data file ...
Reading data file ...
  orthogonal box = (0 0 0) to (21.73455 21.736551 22.148954)
  3 by 4 by 6 MPI processor grid
  reading atoms ...
  400 atoms
Finding 1-2 1-3 1-4 neighbors ...
  special bond factors lj:    0        0        0       
  special bond factors coul:  0        0        0       
  orthogonal box = (0 0 0) to (21.51674 21.519253 21.92725)
     0 = max # of 1-2 neighbors
     0 = max # of 1-3 neighbors
     0 = max # of 1-4 neighbors
  3 by 4 by 6 MPI processor grid
  reading atoms ...
     1 = max # of special neighbors
  special bonds CPU = 0.004 seconds
  read_data CPU = 0.029 seconds
New timer settings: style=normal  mode=nosync  timeout=00:00:00
  400 atoms
150 atoms in group Li_atoms
50 atoms in group P_atoms
200 atoms in group S_atoms
Finding 1-2 1-3 1-4 neighbors ...
  special bond factors lj:    0        0        0       
  special bond factors coul:  0        0        0       
     0 = max # of 1-2 neighbors
     0 = max # of 1-3 neighbors
     0 = max # of 1-4 neighbors
     1 = max # of special neighbors
  special bonds CPU = 0.002 seconds
  read_data CPU = 0.034 seconds
New timer settings: style=normal  mode=nosync  timeout=00:00:00
150 atoms in group Li_atoms
50 atoms in group P_atoms
200 atoms in group S_atoms
Neighbor list info ...
  update: every = 1 steps, delay = 0 steps, check = yes
  max neighbors/atom: 2000, page size: 100000
  master list distance cutoff = 8
  ghost atom cutoff = 8
  binsize = 4, bins = 6 6 6
  1 neighbor lists, perpetual/occasional/extra = 1 0 0
  (1) pair quip, perpetual
      attributes: full, newton on
      pair build: full/bin
      stencil: full/bin/3d
      bin: standard
Setting up Verlet run ...
  Unit style    : metal
  Current step  : 0
  Time step     : 0.002
  Walltime left : 23:59:54.57
Neighbor list info ...
  update: every = 1 steps, delay = 0 steps, check = yes
  max neighbors/atom: 2000, page size: 100000
  master list distance cutoff = 8
  ghost atom cutoff = 8
  binsize = 4, bins = 6 6 6
  1 neighbor lists, perpetual/occasional/extra = 1 0 0
  (1) pair quip, perpetual
      attributes: full, newton on
      pair build: full/bin
      stencil: full/bin/3d
      bin: standard
Setting up Verlet run ...
  Unit style    : metal
  Current step  : 0
  Time step     : 0.002
  Walltime left : 23:59:54.51
Per MPI rank memory allocation (min/avg/max) = 8.036 | 8.036 | 8.036 Mbytes
   Step         TotEng         PotEng         KinEng          Temp          Press     
         0  -3305352.6     -3305352.6      0              0              71094.273    
Per MPI rank memory allocation (min/avg/max) = 7.038 | 8.008 | 8.036 Mbytes
   Step         TotEng         PotEng         KinEng          Temp          Press     
         0  -3305351.6     -3305351.6      0              0              93763.353    
Neighbor list info ...
  update: every = 1 steps, delay = 0 steps, check = yes
  max neighbors/atom: 2000, page size: 100000
  master list distance cutoff = 8
  ghost atom cutoff = 8
  binsize = 4, bins = 6 6 6
  1 neighbor lists, perpetual/occasional/extra = 1 0 0
  (1) pair quip, perpetual
      attributes: full, newton on
      pair build: full/bin
      stencil: full/bin/3d
      bin: standard
Setting up Verlet run ...
  Unit style    : metal
  Current step  : 0
  Time step     : 0.002
  Walltime left : 23:59:50.00
Neighbor list info ...
  update: every = 1 steps, delay = 0 steps, check = yes
  max neighbors/atom: 2000, page size: 100000
  master list distance cutoff = 8
  ghost atom cutoff = 8
  binsize = 4, bins = 6 6 6
  1 neighbor lists, perpetual/occasional/extra = 1 0 0
  (1) pair quip, perpetual
      attributes: full, newton on
      pair build: full/bin
      stencil: full/bin/3d
      bin: standard
Setting up Verlet run ...
  Unit style    : metal
  Current step  : 0
  Time step     : 0.002
  Walltime left : 23:59:50.00
       100  -3305369.5     -3305500.5      131.05587      2541.0835      21665.533    
       100  -3305369.7     -3305493.5      123.79346      2400.2704      24626.534    
Per MPI rank memory allocation (min/avg/max) = 8.036 | 8.036 | 8.036 Mbytes
   Step         TotEng         PotEng         KinEng          Temp          Press     
         0  -3305351.5     -3305351.5      0              0              78458.203    
Per MPI rank memory allocation (min/avg/max) = 8.036 | 8.036 | 8.036 Mbytes
   Step         TotEng         PotEng         KinEng          Temp          Press     
         0  -3305335       -3305335        0              0              69849.539    
       200  -3305395.3     -3305504.6      109.33997      2120.0272      16164.348    
       200  -3305395.6     -3305502.7      107.14381      2077.445       14933.172    
       100  -3305352.1     -3305473.3      121.21138      2350.2057      21074.616    
       300  -3305421       -3305521.5      100.48479      1948.3312      11334.46     
       100  -3305367.3     -3305487.3      119.94104      2325.5747      28108.422    
       300  -3305421.8     -3305519        97.168186      1884.0246      13761.714    
       400  -3305446       -3305534.8      88.761776      1721.03        10038.779    
       400  -3305444.8     -3305536.4      91.641496      1776.8658      8614.6475    
       200  -3305379.2     -3305497.4      118.21868      2292.1792      17816.209    
       200  -3305392.9     -3305506.3      113.45616      2199.8372      20212.397    
       500  -3305466.2     -3305539.6      73.372889      1422.6501      5573.013     
       500  -3305467.3     -3305546.2      78.842977      1528.7113      9583.9285    
       600  -3305486.4     -3305554.6      68.199232      1322.3364      603.58379    
       600  -3305484.8     -3305552.3      67.498124      1308.7424      5987.1168    
       300  -3305406.8     -3305509.8      102.95859      1996.2965      10469.757    
       300  -3305418.6     -3305516        97.455598      1889.5973      12623.941    
       700  -3305502.6     -3305563.4      60.850374      1179.8471      4122.6696    
       700  -3305501.2     -3305562        60.780095      1178.4844      4268.1729    
       800  -3305517       -3305572.7      55.680005      1079.5972      3047.306     
       800  -3305515.2     -3305568.6      53.444138      1036.2452     -74.740485    
       400  -3305431.2     -3305520.6      89.343697      1732.3131      9761.1868    
       400  -3305442.7     -3305532.2      89.506898      1735.4774      8652.2046    
       900  -3305529.4     -3305583.1      53.723604      1041.6639     -691.92024    
       900  -3305527.4     -3305577.2      49.88101       967.15862      3418.559     
      1000  -3305540.2     -3305587.1      46.898615      909.33203     -2526.5909    
      1000  -3305538       -3305582.6      44.563335      864.05255      2109.2674    
       500  -3305453.5     -3305532.8      79.321678      1537.993       3364.8519    
       500  -3305464.2     -3305537.8      73.663705      1428.2888      9943.071     
      1100  -3305550.1     -3305591.7      41.61873       806.95866     -968.63139    
      1100  -3305547.5     -3305589.3      41.77934       810.07277      1211.439     
      1200  -3305558.8     -3305599        40.14489       778.38191      326.74301    
      1200  -3305555.7     -3305592.1      36.469554      707.11966     -1656.5984    
       600  -3305473.1     -3305544.2      71.104375      1378.6651     -242.38286    
       600  -3305482.3     -3305548.7      66.43196       1288.0702      9065.5301    
      1300  -3305566.5     -3305603.7      37.212266      721.52034     -5047.349     
      1300  -3305563       -3305596.8      33.838746      656.11011     -3636.7418    
      1400  -3305573.2     -3305606.5      33.281081      645.29737     -2246.0963    
      1400  -3305569.3     -3305601.6      32.248752      625.28122     -4458.6544    
       700  -3305489.6     -3305549.9      60.330438      1169.7659     -662.87475    
       700  -3305497.9     -3305557.8      59.898668      1161.3941      4102.742     
      1500  -3305574.9     -3305603.8      28.93623       561.05367     -3138.61      
      1500  -3305579       -3305610.3      31.274113      606.38363     -1908.0169    
       800  -3305504       -3305559.1      55.137214      1069.0728     -3051.6486    
      1600  -3305579.8     -3305609.1      29.318136      568.45857     -4481.989     
      1600  -3305584.2     -3305612.4      28.20913       546.95571     -7664.9109    
       800  -3305511.9     -3305569.2      57.313979      1111.2788      5783.9599    
      1700  -3305584.2     -3305609.1      24.850021      481.82489     -3398.8617    
      1700  -3305588.8     -3305615        26.25687       509.10273     -7306.2466    
       900  -3305517.1     -3305571        53.916364      1045.4014      3569.4932    
      1800  -3305588.1     -3305612.1      23.953138      464.43494     -2921.7807    
       900  -3305523.9     -3305573.2      49.345318      956.77191     -256.37351    
      1800  -3305592.9     -3305618.3      25.386695      492.23062     -7220.8844    
      1900  -3305591.5     -3305615.2      23.684643      459.22901     -3635.2065    
      1900  -3305596.5     -3305618.6      22.02083       426.96881     -6463.4426    
      1000  -3305528.7     -3305575.7      46.954569      910.41693     -3448.4681    
      2000  -3305594.7     -3305616.1      21.363286      414.21947     -3785.4219    
      1000  -3305534.6     -3305580.3      45.696164      886.01732      2534.7712    
      2000  -3305599.7     -3305621        21.305737      413.10364     -3811.5888    
      2100  -3305597.5     -3305617.6      20.073669      389.21468     -5573.8215    
      2100  -3305602.5     -3305622.1      19.595624      379.94572     -7126.3406    
      1100  -3305538.5     -3305580.5      41.945996      813.30413     -3847.7958    
      1100  -3305544.3     -3305585.8      41.460048      803.88192      2403.9283    
      2200  -3305600       -3305619        19.032715      369.0313      -5106.0092    
      2200  -3305604.9     -3305623.7      18.763068      363.80304     -5509.9542    
      2300  -3305602.1     -3305620.2      18.017861      349.35399     -6890.3885    
      2300  -3305607.1     -3305623.4      16.329288      316.61372     -7459.3876    
      1200  -3305547.1     -3305586.3      39.119776      758.50566     -4754.6597    
      1200  -3305552.5     -3305590.1      37.527312      727.62887      3254.4963    
      2400  -3305604       -3305621.4      17.421411      337.78923     -4945.8653    
      2400  -3305609       -3305625.6      16.651413      322.8595      -8510.9572    
      2500  -3305605.6     -3305621.7      16.048287      311.16529     -5359.2915    
      2500  -3305610.7     -3305628        17.372965      336.84988     -5299.9939    
      1300  -3305554.4     -3305590        35.588226      690.03133     -4762.7754    
      1300  -3305559.9     -3305596.3      36.40341       705.83719     -2256.0385    
      2600  -3305607.1     -3305624.2      17.033912      330.27589     -8559.5086    
      2600  -3305612.2     -3305629        16.812132      325.97573     -8641.0322    
      2700  -3305608.4     -3305624.5      16.081236      311.80414     -4836.389     
      2700  -3305613.5     -3305629.3      15.832454      306.98044     -5582.5738    
      1400  -3305561       -3305591.8      30.787027      596.93936     -5121.4412    
      1400  -3305566.6     -3305600        33.426501      648.11695     -3260.0009    
      2800  -3305609.6     -3305625.6      16.006385      310.35284     -6430.5155    
      2800  -3305614.6     -3305630.2      15.610136      302.66985     -6498.2392    
      2900  -3305610.6     -3305625.8      15.204956      294.81367     -7593.2482    
      1500  -3305567       -3305598.4      31.360741      608.06329     -1880.6549    
      2900  -3305615.6     -3305630.7      15.078673      292.36515     -7497.3203    
      1500  -3305572.3     -3305600.3      28.026053      543.40596     -4522.3038    
      3000  -3305611.4     -3305626.3      14.926127      289.40737     -6096.9563    
      3000  -3305616.4     -3305630.3      13.879595      269.11583     -7905.4913    
      3100  -3305612.1     -3305626.5      14.370372      278.63167     -6927.3584    
      1600  -3305572.4     -3305600.8      28.464332      551.9039      -9107.6366    
      3100  -3305617       -3305630.5      13.495674      261.67187     -8283.829     
      1600  -3305577.2     -3305605.8      28.581268      554.17121     -5079.1083    
      3200  -3305612.6     -3305627        14.449363      280.16324     -7247.9904    
      3200  -3305617.4     -3305631.8      14.424915      279.68922     -5735.6757    
      3300  -3305613       -3305627.1      14.166893      274.68636     -6822.3941    
      1700  -3305577.1     -3305602.8      25.708187      498.46413     -3359.1255    
      3300  -3305617.7     -3305631.6      13.920173      269.90261     -7989.0243    
      1700  -3305581.6     -3305608.6      26.995576      523.42572     -5056.4011    
      3400  -3305613.1     -3305628.2      15.035047      291.51926     -8496.529     
      3400  -3305617.8     -3305632.4      14.59151       282.91939     -5253.8039    
      3500  -3305613.2     -3305626.9      13.749853      266.60022     -7469.352     
      1800  -3305581.2     -3305605.5      24.301531      471.19004     -8408.0037    
      1800  -3305585.6     -3305610        24.415655      473.40282     -2598.3103    
      3500  -3305617.7     -3305631.5      13.844749      268.4402      -5911.6531    
      3600  -3305613       -3305628.5      15.49553       300.44772     -8448.7614    
      3600  -3305617.5     -3305631.8      14.342829      278.09763     -8878.9401    
      1900  -3305584.8     -3305607.6      22.794764      441.97486     -5403.7659    
      3700  -3305612.8     -3305627.4      14.605778      283.19603     -7139.1455    
      1900  -3305589.2     -3305613        23.785108      461.17695     -2261.2506    
      3700  -3305617.1     -3305631        13.894222      269.39944     -6686.6304    
      3800  -3305612.3     -3305627.4      15.042659      291.66685     -6684.1212    
      3800  -3305616.5     -3305630.6      14.107365      273.53214     -4765.7331    
      2000  -3305588.1     -3305610.4      22.350272      433.35646     -4850.5062    
      3900  -3305611.8     -3305626.9      15.142262      293.59808     -4541.2263    
      2000  -3305592.4     -3305613.8      21.404639      415.02129     -5072.4741    
      3900  -3305615.8     -3305631.1      15.277018      296.21091     -7866.3187    
      4000  -3305611.1     -3305626        14.854322      288.01512     -4372.6009    
      2100  -3305591       -3305611.1      20.105278      389.82757     -7044.7095    
      4000  -3305615       -3305630.6      15.595834      302.39253     -7365.8711    
      4100  -3305610.4     -3305625.7      15.285162      296.36881     -6325.4201    
      2100  -3305595.1     -3305615.6      20.533206      398.12479     -3661.677     
      4100  -3305614.2     -3305629.8      15.602285      302.51763     -6347.1657    
      4200  -3305609.6     -3305626.2      16.631915      322.48145     -4453.2646    
      2200  -3305593.5     -3305612.7      19.218115      372.62608     -6065.9927    
      4200  -3305613.3     -3305629.7      16.418223      318.3381      -6134.1826    
      4300  -3305608.7     -3305626.1      17.415531      337.67522     -7252.4504    
      2200  -3305597.7     -3305617.5      19.831365      384.51657     -7160.9706    
      4300  -3305612.4     -3305629.9      17.483997      339.00273     -5633.4124    
      4400  -3305607.8     -3305625.1      17.246237      334.39273     -7737.7332    
      2300  -3305595.9     -3305615.1      19.263239      373.50101     -5235.0187    
      4400  -3305611.5     -3305628.8      17.252925      334.52239     -4978.6699    
      4500  -3305607       -3305624.1      17.103938      331.63365     -5656.4851    
      2300  -3305600       -3305618.6      18.566825      359.99801     -4691.4816    
      4500  -3305610.8     -3305629.2      18.455477      357.83905     -6416.6668    
      4600  -3305606.3     -3305625.1      18.816808      364.84503     -5590.8289    
      2400  -3305597.9     -3305615.6      17.689208      342.98162     -5568.2663    
      4600  -3305610.2     -3305628.9      18.685274      362.29467     -7437.3878    
      4700  -3305605.7     -3305623.2      17.49344       339.18582     -6855.7275    
      2400  -3305602       -3305619        16.995158      329.52448     -5506.9212    
      4700  -3305609.7     -3305629.9      20.138796      390.47745     -3952.5105    
      2500  -3305599.7     -3305616.9      17.130489      332.14844     -5086.2761    
      4800  -3305605.2     -3305623.9      18.672433      362.04569     -6981.4313    
      4800  -3305609.5     -3305627.5      18.047508      349.92882     -6400.017     
      4900  -3305604.9     -3305625        20.088405      389.50042     -8232.3575    
      2500  -3305603.8     -3305621        17.179698      333.10257     -6542.9742    
      2600  -3305601.4     -3305617.4      16.039936      311.00338     -5232.1835    
      4900  -3305609.4     -3305628.5      19.162718      371.55198     -5693.0081    
      5000  -3305604.7     -3305624        19.302307      374.2585      -5474.7297    
      5000  -3305609.5     -3305628.9      19.370886      375.58822     -1968.7511    
      5100  -3305604.8     -3305622.7      17.984384      348.7049      -4358.7424    
      2600  -3305605.3     -3305622.1      16.831525      326.35175     -4281.4549    
      2700  -3305602.8     -3305619.2      16.40546       318.09063     -2882.1462    
      5100  -3305609.9     -3305629.9      19.977709      387.3541      -7577.0546    
      5200  -3305604.9     -3305623.7      18.769066      363.91934     -6943.6485    
      5200  -3305610.4     -3305629.6      19.159904      371.49741     -5026.844     
      5300  -3305605.3     -3305623.8      18.533568      359.35319     -6253.7766    
      2800  -3305604       -3305619.1      15.126104      293.28479     -4703.9676    
      2700  -3305606.7     -3305622.9      16.260674      315.28333     -6506.2852    
      5300  -3305611.1     -3305628.9      17.78995       344.93494     -8415.0833    
      5400  -3305605.7     -3305624.2      18.461381      357.95353     -6231.4954    
      5400  -3305611.8     -3305631.3      19.503001      378.14982     -7591.082     
      5500  -3305606.3     -3305625.3      18.994009      368.28082     -4837.0865    
      2900  -3305605       -3305619.9      14.876374      288.4427      -3996.6337    
      2800  -3305607.8     -3305623.8      15.986109      309.9597      -6444.4629    
      5500  -3305612.7     -3305631        18.346467      355.72543     -6151.9371    
      5600  -3305607       -3305624.7      17.713952      343.46139     -6739.1145    
      5600  -3305613.5     -3305631        17.45591       338.45813     -6396.1775    
      3000  -3305605.9     -3305621.1      15.203648      294.78832     -4274.7007    
      5700  -3305607.7     -3305625.3      17.62779       341.79078     -5857.2125    
      2900  -3305608.8     -3305623.4      14.63102       283.68546     -7376.0178    
      5700  -3305614.4     -3305632.4      17.93751       347.79603     -5524.9139    
      5800  -3305608.4     -3305625.6      17.166532      332.84729     -7349.8846    
      3100  -3305606.6     -3305621        14.320287      277.66055     -5964.2235    
      5800  -3305615.2     -3305631.8      16.604648      321.95275     -6982.16      
      5900  -3305609.1     -3305626.5      17.461208      338.56085     -7247.3744    
      3000  -3305609.6     -3305624.3      14.76147       286.21479     -8010.4941    
      5900  -3305616       -3305632.7      16.750928      324.78902     -7335.8715    
      6000  -3305609.7     -3305625.8      16.124134      312.63592     -6534.967     
      3200  -3305607.2     -3305622        14.791125      286.78979     -6380.4076    
      6000  -3305616.6     -3305632.7      16.04072       311.01858     -5940.7428    
      6100  -3305610.2     -3305626.1      15.838929      307.10597     -6595.0215    
      3100  -3305610.2     -3305624.6      14.437118      279.92583     -7647.6545    
      6100  -3305617.1     -3305633.4      16.261888      315.30687     -7399.2316    
      6200  -3305610.7     -3305626.7      15.999505      310.21945     -5884.7452    
      3300  -3305607.7     -3305622.5      14.747049      285.93518     -5010.7928    
      6200  -3305617.6     -3305633.4      15.87759       307.85558     -5669.3891    
      6300  -3305611       -3305627.4      16.423197      318.43453     -4425.7113    
      3200  -3305610.7     -3305624.3      13.694563      265.5282      -6402.0466    
      6400  -3305611.2     -3305627.5      16.221855      314.53066     -6825.2243    
      6300  -3305617.9     -3305633.2      15.380762      298.22245     -5613.2071    
      3400  -3305608.1     -3305622.5      14.489367      280.93891     -5360.3773    
      6500  -3305611.4     -3305626.9      15.523697      300.99385     -6943.6851    
      6400  -3305618       -3305634.1      16.132448      312.79711     -6279.2969    
      3300  -3305610.9     -3305625        14.069053      272.78929     -6492.2859    
      6600  -3305611.4     -3305627.5      16.092105      312.0149      -6620.7474    
      6500  -3305618       -3305634.3      16.27049       315.47365     -6836.2359    
      3500  -3305608.3     -3305623.4      15.089261      292.57043     -4119.292     
      6700  -3305611.4     -3305627.3      15.931872      308.90808     -6093.1077    
      6600  -3305617.9     -3305632.7      14.800837      286.97809     -5189.9984    
      3400  -3305611.1     -3305625        13.963178      270.73645     -7084.0964    
      3600  -3305608.4     -3305622.8      14.440496      279.99132     -3732.6295    
      6800  -3305611.2     -3305626.5      15.331347      297.26432     -6200.4211    
      6700  -3305617.7     -3305633.1      15.413617      298.85947     -4975.2725    
      6900  -3305610.9     -3305627.1      16.250078      315.07788     -7744.4146    
      6800  -3305617.3     -3305633.7      16.458008      319.10949     -5611.2602    
      3500  -3305611       -3305625.2      14.180369      274.94764     -6389.322     
      3700  -3305608.4     -3305622.6      14.240504      276.11363     -5155.4561    
      7000  -3305610.4     -3305626.2      15.739318      305.1746      -5453.2243    
      6900  -3305616.8     -3305632.3      15.561968      301.7359      -4998.953     
      7100  -3305609.9     -3305626.7      16.84197       326.55425     -5829.513     
      7000  -3305616.2     -3305632.8      16.649185      322.81628     -5200.3847    
      3800  -3305608.2     -3305623.2      14.942828      289.73121     -4254.2429    
      3600  -3305610.8     -3305625.2      14.347975      278.1974      -6956.2504    
      7200  -3305609.3     -3305626.5      17.171072      332.93532     -6979.4991    
      7100  -3305615.5     -3305631.7      16.208415      314.27005     -4981.1964    
      7300  -3305608.6     -3305626.8      18.151125      351.93787     -5174.5314    
      7200  -3305614.7     -3305631.7      16.974216      329.11842     -3375.0159    
      3900  -3305608       -3305623.9      15.9234        308.74382     -5612.7173    
      3700  -3305610.5     -3305624.7      14.277299      276.82705     -7627.7473    
      7400  -3305607.9     -3305624.5      16.619679      322.24418     -3892.5321    
      7300  -3305613.9     -3305632.5      18.596434      360.57212     -5215.1638    
      7500  -3305607.2     -3305625.9      18.685946      362.30769     -5191.6419    
      4000  -3305607.6     -3305623        15.470873      299.96963     -3909.6974    
      7400  -3305613.2     -3305630.8      17.622709      341.69226     -3929.3591    
      3800  -3305609.9     -3305623.9      13.99268       271.30847     -5833.1432    
      7600  -3305606.6     -3305625.5      18.898633      366.43155     -4800.0639    
      7500  -3305612.5     -3305632.3      19.756603      383.067       -2760.0445    
      7700  -3305606       -3305625.2      19.195418      372.18602     -5942.1125    
      4100  -3305607.1     -3305622.6      15.556253      301.62509     -5933.9737    
      7600  -3305611.9     -3305630.7      18.841556      365.32487     -6022.724     
      3900  -3305609.3     -3305623.4      14.111177      273.60605     -4790.53      
      7800  -3305605.4     -3305624.8      19.308325      374.37519     -3851.273     
      7700  -3305611.4     -3305630.6      19.228728      372.83186     -4781.4703    
      4200  -3305606.5     -3305623        16.474485      319.42898     -4436.2054    
      7900  -3305605       -3305623.6      18.537602      359.4314      -3429.8735    
      7800  -3305610.9     -3305629.7      18.763331      363.80814     -3299.2819    
      4000  -3305608.4     -3305624        15.584633      302.17536     -6603.0659    
      8000  -3305604.7     -3305624        19.280972      373.84483     -5554.7838    
      7900  -3305610.6     -3305631.4      20.743822      402.2085      -7414.6609    
      4300  -3305605.8     -3305623.2      17.393246      337.24312     -4994.5921    
      8100  -3305604.5     -3305625        20.487115      397.23113     -3595.6624    
      8000  -3305610.4     -3305630.1      19.72119       382.38036     -6576.0479    
      4100  -3305607.5     -3305623.8      16.314484      316.32668     -6511.2527    
      8200  -3305604.4     -3305624.6      20.117922      390.07272     -5043.4092    
      8100  -3305610.4     -3305629.7      19.342832      375.04426     -5752.6486    
      4400  -3305605.2     -3305622.9      17.710914      343.40249     -3228.672     
      8300  -3305604.5     -3305623.9      19.406492      376.27858     -2529.8133    
      8200  -3305610.5     -3305631.2      20.732244      401.984       -4774.2254    
      4200  -3305606.6     -3305622.5      15.861991      307.55313     -4093.0384    
      8400  -3305604.7     -3305624.6      19.915337      386.14475     -4471.5486    
      8300  -3305610.7     -3305629.9      19.196639      372.20968     -6340.7356    
      4500  -3305604.6     -3305622.1      17.524035      339.77904     -5262.9344    
      8500  -3305605.1     -3305624.5      19.453813      377.19611     -5851.5977    
      8400  -3305611.1     -3305630.4      19.372686      375.62312     -6050.7216    
      4300  -3305605.7     -3305623.2      17.516503      339.63299     -6621.4853    
      8600  -3305605.5     -3305625.1      19.649503      380.99039     -5793.3875    
      8500  -3305611.6     -3305629.9      18.346791      355.7317      -5678.2553    
      4600  -3305604       -3305620.4      16.337594      316.77476     -6696.4492    
      8700  -3305606       -3305624.8      18.781624      364.16283     -3827.2954    
      8600  -3305612.1     -3305630.9      18.769659      363.93083     -6786.3274    
      4400  -3305604.8     -3305621.9      17.158693      332.69531     -4453.8554    
      8800  -3305606.6     -3305625.6      19.05766       369.51498     -7829.3824    
      8700  -3305612.7     -3305632.1      19.355031      375.2808      -2150.9596    
      4700  -3305603.5     -3305620.4      16.950456      328.65773     -3168.4545    
      8900  -3305607.2     -3305625.7      18.497433      358.65256     -3705.2952    
      4500  -3305603.9     -3305621.7      17.769711      344.54252     -2987.3983    
      8800  -3305613.4     -3305631.4      18.017403      349.3451      -5136.309     
      9000  -3305607.7     -3305626.2      18.423965      357.22805     -4436.8552    
      4800  -3305603       -3305621.4      18.326341      355.33519     -6410.1107    
      8900  -3305614.1     -3305632.6      18.547786      359.62887     -6254.4174    
      9100  -3305608.3     -3305627.3      19.011992      368.6295      -7792.5388    
      4600  -3305603.1     -3305622.2      19.040502      369.1823      -1535.262     
      9000  -3305614.7     -3305632.4      17.707079      343.32813     -4732.629     
      9200  -3305608.8     -3305627.2      18.413355      357.02233     -5889.6771    
      4900  -3305602.7     -3305620.4      17.73733       343.91468     -5295.6725    
      9100  -3305615.2     -3305632.2      17.017909      329.96561     -6177.4416    
      9300  -3305609.3     -3305627.5      18.242915      353.71762     -6113.4352    
      4700  -3305602.5     -3305621.8      19.240199      373.05428     -6469.8895    
      9200  -3305615.7     -3305632.6      16.926366      328.19063     -3014.6051    
      9400  -3305609.7     -3305628.2      18.47679       358.25229     -6821.9354    
      5000  -3305602.4     -3305621        18.612783      360.88912     -5642.0864    
      9300  -3305616.1     -3305633.9      17.810513      345.33364     -3712.2635    
      9500  -3305610.1     -3305627.3      17.280162      335.0505      -4638.2836    
      4800  -3305602.1     -3305620.4      18.292131      354.67189     -4511.8768    
      9400  -3305616.4     -3305633.7      17.260842      334.6759      -4238.8543    
      5100  -3305602.2     -3305621.1      18.909722      366.64656     -7224.4178    
      9600  -3305610.3     -3305627.6      17.231662      334.11013     -7184.2129    
      9500  -3305616.7     -3305633.3      16.6128        322.11081     -2848.3884    
      9700  -3305610.5     -3305627.6      17.05867       330.75593     -6476.5731    
      4900  -3305601.9     -3305620.5      18.603511      360.70934     -2617.3567    
      9600  -3305616.8     -3305634.2      17.412988      337.62592     -7347.7914    
      5200  -3305602.2     -3305620.5      18.35211       355.83483     -4593.3088    
      9800  -3305610.6     -3305627.4      16.787738      325.50273     -7361.5488    
      9700  -3305616.9     -3305633.8      16.96767       328.9915      -5584.7116    
      9900  -3305610.6     -3305627.8      17.216059      333.80759     -4884.6656    
      5000  -3305602       -3305621.6      19.66741       381.3376      -4464.3461    
      5300  -3305602.2     -3305620.2      17.94341       347.91043     -3073.5131    
      9800  -3305616.8     -3305633.7      16.878031      327.25346     -4672.1515    
     10000  -3305610.5     -3305627.4      16.923983      328.14443     -7876.395     
      9900  -3305616.6     -3305633.4      16.791544      325.57654     -6212.7392    
      5100  -3305602.3     -3305621.9      19.675133      381.48735     -5746.8913    
     10100  -3305610.3     -3305627.7      17.386279      337.10805     -6267.9347    
      5400  -3305602.4     -3305621.7      19.323656      374.67244     -4929.321     
     10000  -3305616.3     -3305633.1      16.834801      326.41527     -5323.1438    
     10200  -3305610       -3305629.3      19.33323       374.85808     -4751.9691    
     10100  -3305615.8     -3305633.1      17.268399      334.82243     -4162.8634    
      5200  -3305602.8     -3305622.4      19.595925      379.95157     -4623.5101    
     10300  -3305609.5     -3305627.2      17.604178      341.33295     -4969.9704    
      5500  -3305602.7     -3305621.1      18.447111      357.67684     -4025.4681    
     10200  -3305615.3     -3305632.7      17.430173      337.95912     -5786.165     
     10400  -3305609.1     -3305627        17.981071      348.64066     -6618.1925    
      5300  -3305603.4     -3305622.4      18.942121      367.27475     -4494.1576    
     10300  -3305614.7     -3305632.4      17.681759      342.83719     -4322.1161    
     10500  -3305608.5     -3305626.5      17.966219      348.35267     -5450.9604    
      5600  -3305603.1     -3305622        18.896007      366.38064     -4621.9501    
     10400  -3305614       -3305631.9      17.910095      347.26448     -7805.1472    
     10600  -3305608       -3305626.8      18.850943      365.50687     -5484.4359    
      5400  -3305604.2     -3305622.5      18.229589      353.45925     -5828.2338    
     10500  -3305613.3     -3305632.8      19.476294      377.632       -4328.1186    
     10700  -3305607.5     -3305626.8      19.326052      374.7189      -4726.368     
      5700  -3305603.5     -3305622.1      18.53451       359.37145     -6010.818     
     10800  -3305607.1     -3305625.1      18.076762      350.49604     -6527.6636    
     10600  -3305612.6     -3305632.1      19.479026      377.68498     -6017.8007    
      5500  -3305605.1     -3305621.5      16.436223      318.6871      -3487.2125    
     10900  -3305606.7     -3305627.1      20.403234      395.60472     -6700.6427    
      5800  -3305604.1     -3305621.2      17.181531      333.13812     -3252.2941    
     10700  -3305612       -3305631.9      19.965428      387.11598     -6167.4438    
     11000  -3305606.4     -3305625.7      19.329037      374.77679     -4169.2127    
     10800  -3305611.3     -3305630.9      19.57437       379.53362     -5160.9065    
      5600  -3305606       -3305624.4      18.405993      356.8796      -4622.1073    
      5900  -3305604.6     -3305621.7      17.08566       331.27924     -5889.1839    
     11100  -3305606.1     -3305626.2      20.013946      388.05671     -4804.6864    
     10900  -3305610.7     -3305630.2      19.502242      378.13511     -4325.5862    
     11200  -3305606       -3305626.1      20.092147      389.57297     -5702.2599    
     11000  -3305610.2     -3305629.9      19.689458      381.76511     -5409.2825    
      5700  -3305606.9     -3305624.2      17.238616      334.24495     -7440.2282    
      6000  -3305605.2     -3305623.4      18.190005      352.69173     -7785.2481    
     11300  -3305606       -3305626.1      20.083967      389.41436     -4981.0073    
     11100  -3305609.8     -3305630.9      21.130972      409.71508     -5448.0883    
     11400  -3305606.1     -3305626.9      20.813826      403.56583     -5401.2213    
     11200  -3305609.6     -3305630.3      20.711883      401.58923      216.71311    
      5800  -3305607.8     -3305625.7      17.850895      346.11663     -5547.7812    
      6100  -3305605.8     -3305623.1      17.316592      335.75685     -7035.86      
     11500  -3305606.2     -3305626        19.818063      384.25866     -5529.9747    
     11300  -3305609.5     -3305629.7      20.253518      392.70184     -2149.952     
     11600  -3305606.4     -3305626.2      19.711126      382.18524     -4161.8587    
     11400  -3305609.5     -3305630.3      20.752046      402.36795     -4884.6799    
      6200  -3305606.3     -3305622.7      16.420765      318.38739     -5761.3293    
      5900  -3305608.6     -3305624.8      16.145133      313.04307     -7178.7524    
     11700  -3305606.7     -3305626.1      19.320864      374.61832     -4844.5413    
     11500  -3305609.8     -3305630.9      21.140054      409.89117     -3544.2867    
     11800  -3305607       -3305625.9      18.852127      365.52983     -4808.4554    
      6300  -3305606.8     -3305624.5      17.640836      342.04372     -6524.0219    
     11600  -3305610.1     -3305630        19.910616      386.05321     -3230.8741    
      6000  -3305609.3     -3305625.2      15.82474       306.83086     -6902.9577    
     11900  -3305607.4     -3305626.7      19.3267        374.73147     -8148.6261    
     11700  -3305610.6     -3305632        21.360458      414.16464     -4418.9914    
      6400  -3305607.3     -3305623.6      16.342296      316.86593     -5732.2965    
     12000  -3305607.7     -3305627        19.324741      374.69349     -5246.1442    
     11800  -3305611.2     -3305631.6      20.406633      395.67064     -3178.9159    
      6100  -3305609.9     -3305625.8      15.893353      308.16122     -4377.6537    
     12100  -3305608       -3305627        18.951419      367.45503     -4593.6942    
     11900  -3305611.9     -3305632.4      20.563088      398.70419     -5963.9905    
      6500  -3305607.6     -3305624        16.364903      317.30425     -4891.0682    
     12200  -3305608.3     -3305627.9      19.509448      378.27483     -5625.9904    
      6200  -3305610.4     -3305626.7      16.274253      315.54662     -8385.1099    
     12000  -3305612.6     -3305633.2      20.558743      398.61995     -4000.9123    
     12300  -3305608.6     -3305627.7      19.08043       369.95646     -5709.2762    
     12100  -3305613.3     -3305632.1      18.845057      365.39275     -5738.3847    
      6600  -3305608       -3305624.9      16.94862       328.62213     -5665.4169    
     12400  -3305608.9     -3305627.5      18.63612       361.34159     -4606.98      
      6300  -3305610.8     -3305626.3      15.485835      300.25973     -4337.9502    
     12200  -3305613.9     -3305631.5      17.614021      341.5238      -4669.9857    
     12500  -3305609       -3305628.2      19.204781      372.36754     -7328.8899    
     12300  -3305614.5     -3305633.8      19.297023      374.15606     -4161.1005    
      6700  -3305608.2     -3305624.9      16.715998      324.11176     -5373.5897    
      6400  -3305611.1     -3305627.6      16.540071      320.70065     -4352.8816    
     12600  -3305609.1     -3305627.6      18.438318      357.50636     -4656.7432    
     12400  -3305615       -3305633.1      18.146703      351.85214     -3579.7202    
     12700  -3305609.2     -3305628.2      19.005115      368.49616     -4593.25      
     12500  -3305615.4     -3305632.8      17.415631      337.67716     -2854.9047    
      6800  -3305608.3     -3305625        16.667628      323.17388     -7698.6867    
      6500  -3305611.2     -3305627.7      16.4994        319.91207     -6321.5283    
     12800  -3305609.2     -3305627.5      18.263833      354.1232      -4984.6396    
     12600  -3305615.7     -3305633.6      17.886118      346.79959     -4430.3424    
      6900  -3305608.4     -3305624        15.631353      303.08122     -3551.8237    
     12900  -3305609.1     -3305628        18.89509       366.36284     -5427.0484    
     12700  -3305616       -3305633.6      17.689005      342.97769     -3501.219     
      6600  -3305611.2     -3305627        15.851086      307.3417      -7031.5462    
     13000  -3305609       -3305628        18.997354      368.34568     -5038.1331    
     12800  -3305616.1     -3305633.1      16.977062      329.17361     -5518.2208    
      7000  -3305608.3     -3305624.9      16.566265      321.20852     -7792.0473    
     13100  -3305608.8     -3305627.5      18.713418      362.84036     -6466.7688    
     12900  -3305616.1     -3305634        17.867924      346.4468      -3145.9315    
      6700  -3305611.1     -3305627.9      16.834254      326.40465     -5023.6464    
     13200  -3305608.5     -3305626.3      17.757552      344.30676     -4708.7025    
     13000  -3305616       -3305633.3      17.277854      335.00576     -3143.9923    
      7100  -3305608.2     -3305624.6      16.394163      317.87159     -7771.0133    
     13300  -3305608.2     -3305627        18.780524      364.14149     -5654.1649    
     13100  -3305615.8     -3305633        17.212096      333.73074     -4477.1962    
      6800  -3305610.8     -3305626.6      15.799662      306.34463     -4429.2087    
     13400  -3305607.8     -3305627.1      19.276519      373.75851     -6071.8402    
     13200  -3305615.4     -3305633.9      18.524085      359.16931     -2088.1197    
      7200  -3305607.9     -3305625.4      17.462081      338.57778     -6968.7716    
     13500  -3305607.3     -3305625.9      18.521952      359.12795     -6880.0773    
     13300  -3305615       -3305633        17.974115      348.50577     -5934.862     
      6900  -3305610.5     -3305627.2      16.713019      324.05399     -3431.7955    
     13600  -3305606.8     -3305627.6      20.761359      402.54853     -5613.735     
     13400  -3305614.5     -3305633.3      18.878928      366.04948     -5023.3543    
      7300  -3305607.6     -3305623.9      16.315409      316.3446      -8198.2187    
     13700  -3305606.4     -3305626.8      20.41          395.73591     -6157.1014    
      7000  -3305610       -3305627.4      17.38484       337.08014     -6656.466     
     13500  -3305613.8     -3305632.3      18.441578      357.56956     -1406.5638    
     13800  -3305605.9     -3305627.4      21.443377      415.7724      -5671.877     
      7400  -3305607.2     -3305624.6      17.399063      337.3559      -4264.8523    
     13600  -3305613.1     -3305632.1      19.006691      368.52673     -3875.2849    
      7100  -3305609.4     -3305626        16.596619      321.79708     -7014.6141    
     13900  -3305605.5     -3305626.8      21.249476      412.01279     -3535.0945    
     13700  -3305612.4     -3305631.8      19.351883      375.21975     -5994.2689    
      7500  -3305606.7     -3305622.6      15.931985      308.91028     -5934.3997    
     14000  -3305605.2     -3305625        19.796069      383.83221     -4448.7868    
     13800  -3305611.7     -3305631.6      19.887515      385.60528     -4788.4862    
      7200  -3305608.8     -3305626.1      17.344075      336.28974     -5335.3543    
     14100  -3305604.9     -3305626.1      21.130769      409.71114     -3375.9292    
     13900  -3305611       -3305631        19.954468      386.90347     -1267.4524    
      7600  -3305606.1     -3305623.2      17.036115      330.31859     -4441.7869    
     14200  -3305604.7     -3305625.4      20.703257      401.42198     -6140.8737    
     14000  -3305610.3     -3305630.8      20.417643      395.88411     -4584.8794    
      7300  -3305608.1     -3305625.7      17.684505      342.89043     -6491.9898    
     14300  -3305604.5     -3305623.7      19.112783      370.58378     -4730.0879    
     14100  -3305609.7     -3305630.8      21.079455      408.71619     -3922.1793    
      7700  -3305605.5     -3305623.4      17.839897      345.90338     -6577.1681    
     14400  -3305604.4     -3305625.1      20.665467      400.68925     -3065.4971    
     14200  -3305609.2     -3305631.2      22.008912      426.73772     -2751.3292    
      7400  -3305607.3     -3305624.2      16.869495      327.08796     -7232.6473    
     14500  -3305604.3     -3305624.1      19.781527      383.55025     -8882.1104    
     14300  -3305608.8     -3305630        21.189211      410.84429     -5899.1929    
      7800  -3305604.9     -3305622        17.095103      331.46233     -5369.3667    
     14600  -3305604.3     -3305625.4      21.099786      409.1104      -2891.4982    
     14400  -3305608.4     -3305629.4      20.985395      406.89243     -4163.556     
      7500  -3305606.6     -3305623.9      17.323198      335.88495     -5811.2543    
     14700  -3305604.3     -3305625.8      21.476916      416.4227      -5265.2982    
     14500  -3305608.2     -3305629.8      21.554297      417.92305     -5349.1431    
      7900  -3305604.2     -3305622.4      18.198878      352.86377     -6464.4416    
     14800  -3305604.3     -3305625.2      20.812339      403.53699     -3600.6199    
     14600  -3305608.2     -3305629.9      21.693794      420.6278      -4242.1354    
      7600  -3305605.9     -3305624        18.087578      350.70575     -5646.3082    
     14900  -3305604.5     -3305624.9      20.389985      395.34785     -2170.0421    
      8000  -3305603.6     -3305622.2      18.543029      359.53663     -5366.3082    
     14700  -3305608.3     -3305629.4      21.14724       410.03049     -3576.517     
     15000  -3305604.7     -3305625.2      20.539107      398.23922     -5355.6717    
      7700  -3305605.2     -3305623.2      18.000006      349.00778     -3332.5059    
     14800  -3305608.4     -3305630.3      21.844975      423.55911     -3015.9583    
      8100  -3305603       -3305621.2      18.1808        352.51325     -2542.0599    
     15100  -3305604.9     -3305626.1      21.198438      411.0232      -4061.523     
     14900  -3305608.7     -3305630.4      21.711271      420.96667     -4910.7115    
      7800  -3305604.6     -3305623.3      18.696768      362.51753     -5551.7478    
     15200  -3305605.3     -3305625.5      20.276452      393.14652     -4464.1543    
     15000  -3305609.1     -3305629.1      19.961816      387.04594     -6616.4958    
      8200  -3305602.5     -3305621.6      19.123588      370.79328     -7367.274     
     15300  -3305605.6     -3305626.9      21.296882      412.93195     -4914.0905    
     15100  -3305609.6     -3305631        21.41659       415.25301     -2542.9159    
      7900  -3305604.1     -3305623.5      19.428435      376.70405     -4393.3117    
     15400  -3305606       -3305627        20.998412      407.14483     -3845.1816    
     15200  -3305610.1     -3305630.7      20.600644      399.43237     -3537.6774    
      8300  -3305602       -3305622.3      20.223922      392.128       -6608.1564    
     15500  -3305606.4     -3305626.4      19.940856      386.63953     -5993.8857    
     15300  -3305610.6     -3305629.9      19.332648      374.8468      -4638.1483    
      8000  -3305603.7     -3305623        19.334897      374.8904      -5652.6963    
     15600  -3305606.8     -3305627.6      20.832479      403.92749     -5098.6591    
     15400  -3305611.1     -3305631        19.936316      386.5515      -4610.172     
      8400  -3305601.7     -3305620.8      19.107994      370.49091     -5604.6236    
     15700  -3305607.1     -3305627.1      19.935388      386.53352     -5521.1967    
     15500  -3305611.6     -3305630.8      19.215617      372.57765     -4193.2196    
      8100  -3305603.4     -3305622.5      19.142213      371.15439     -6089.8815    
     15800  -3305607.4     -3305627.5      20.102703      389.77765     -2261.6069    
     15600  -3305612.1     -3305631.6      19.525759      378.5911      -6112.2687    
      8500  -3305601.5     -3305620.4      18.851834      365.52414     -4726.7807    
     15900  -3305607.7     -3305628.1      20.393843      395.42264     -5446.5547    
     15700  -3305612.4     -3305631        18.584719      360.34496     -6290.4313    
      8200  -3305603.2     -3305623.7      20.42596       396.04538     -7465.1837    
     16000  -3305607.8     -3305626.8      19.02823       368.94434     -5043.2191    
     15800  -3305612.7     -3305632.2      19.440891      376.94556     -4785.6533    
      8600  -3305601.4     -3305622        20.557751      398.6007      -5776.9775    
     16100  -3305607.9     -3305626.8      18.890897      366.28155     -5655.5354    
     15900  -3305612.9     -3305631.8      18.867496      365.82782     -4013.8298    
      8300  -3305603.2     -3305622.1      18.840851      365.3112      -5541.1934    
     16200  -3305607.9     -3305626.9      19.017951      368.74503     -4162.8617    
     16000  -3305613       -3305631.2      18.158746      352.08565     -5559.6215    
      8700  -3305601.5     -3305621.1      19.631665      380.64454     -4616.5403    
     16300  -3305607.8     -3305628        20.156345      390.81772     -5317.6371    
     16100  -3305613       -3305632.4      19.414827      376.4402      -4643.384     
      8400  -3305603.4     -3305623.5      20.148526      390.66612     -6849.1687    
     16400  -3305607.7     -3305626.9      19.201538      372.30466     -5885.2792    
      8800  -3305601.6     -3305620.6      18.981537      368.03901     -6508.5517    
     16200  -3305612.9     -3305631.8      18.901625      366.48957     -4989.4649    
     16500  -3305607.4     -3305626.5      19.093592      370.21166     -4580.8446    
      8500  -3305603.6     -3305623.2      19.525255      378.58132     -3518.7218    
     16300  -3305612.7     -3305631.3      18.633612      361.29297     -3606.9877    
      8900  -3305601.9     -3305622.3      20.381994      395.1929      -4387.6605    
     16600  -3305607.1     -3305627.4      20.255921      392.74843     -7117.7686    
     16400  -3305612.3     -3305632        19.750572      382.95007     -4145.6433    
      8600  -3305604       -3305622.8      18.760039      363.74431     -6352.9161    
     16700  -3305606.7     -3305627.3      20.564609      398.73369     -4491.7916    
     16500  -3305611.8     -3305631.6      19.715639      382.27274     -5080.7127    
      9000  -3305602.3     -3305620.8      18.550345      359.67847     -4547.2783    
     16800  -3305606.3     -3305626.2      19.906229      385.96815     -6357.6959    
     16600  -3305611.3     -3305631.2      19.879097      385.44208     -4832.9921    
      8700  -3305604.5     -3305624.6      20.051582      388.78643     -6095.996     
     16900  -3305605.9     -3305626.5      20.63293       400.05838     -4121.3942    
     16700  -3305610.7     -3305630.6      19.854094      384.95728     -3066.9824    
      9100  -3305602.8     -3305622.2      19.423463      376.60765     -3573.918     
     17000  -3305605.4     -3305625.8      20.337718      394.33442     -5039.8646    
     16800  -3305610.1     -3305630.1      20.095265      389.63342     -4200.0044    
      8800  -3305605.1     -3305623.3      18.191804      352.72661     -6153.7294    
     17100  -3305605       -3305626.5      21.504569      416.95887     -3649.8886    
     16900  -3305609.4     -3305629.7      20.322833      394.04581     -3802.973     
      9200  -3305603.4     -3305622.4      19.094523      370.22972     -5898.0369    
     17200  -3305604.6     -3305626.1      21.558873      418.01178     -2216.8686    
     17000  -3305608.7     -3305630.1      21.39822       414.89683     -4085.3574    
      8900  -3305605.7     -3305624.4      18.776939      364.07199     -3302.8885    
     17300  -3305604.2     -3305626.6      22.364253      433.62754     -3418.2744    
     17100  -3305608.1     -3305629.6      21.511848      417.09999     -1933.4538    
      9300  -3305604       -3305623        19.066655      369.68938     -4790.2444    
     17400  -3305603.9     -3305625.4      21.464609      416.18407     -3691.3284    
     17200  -3305607.5     -3305628.6      21.115138      409.40805     -3417.5718    
      9000  -3305606.3     -3305624.3      18.020919      349.41328     -5587.4653    
     17500  -3305603.7     -3305625.4      21.626361      419.32033     -2800.0222    
     17300  -3305607.1     -3305631.1      24.032118      465.9663      -6315.4789    
      9400  -3305604.6     -3305622.6      18.00945       349.1909      -4932.407     
     17600  -3305603.6     -3305625.9      22.315042      432.67338     -4489.3122    
     17400  -3305606.8     -3305629.9      23.112473      448.13502     -4177.1946    
      9100  -3305606.9     -3305624.5      17.584987      340.96086     -4984.7046    
     17700  -3305603.6     -3305624.4      20.835413      403.98438     -5663.7525    
      9500  -3305605.3     -3305624        18.704035      362.65843     -7433.9596    
     17500  -3305606.7     -3305629.2      22.498694      436.23426     -3766.9904    
     17800  -3305603.6     -3305626.7      23.10334       447.95794     -1960.0531    
     17600  -3305606.7     -3305630.6      23.834229      462.12938     -3515.5792    
      9200  -3305607.4     -3305625.2      17.796133      345.05483     -7512.1364    
     17900  -3305603.7     -3305625.3      21.629038      419.37224     -4864.6403    
      9600  -3305605.8     -3305622.7      16.889566      327.47712     -4444.2125    
     17700  -3305606.9     -3305630        23.157353      449.00521     -4011.1967    
     18000  -3305603.8     -3305625.5      21.683213      420.42265     -3008.1151    
     17800  -3305607.2     -3305629.4      22.241762      431.25252     -3848.1988    
      9300  -3305607.9     -3305625.5      17.634334      341.91765     -5204.8522    
      9700  -3305606.3     -3305625.1      18.70293       362.63699     -5278.5828    
     18100  -3305604       -3305625.8      21.807013      422.82304     -6645.7425    
     17900  -3305607.6     -3305630.1      22.485597      435.98032     -3610.4169    
     18200  -3305604.2     -3305625.4      21.215792      411.35968     -3327.3052    
      9400  -3305608.3     -3305624.2      15.944333      309.1497      -4957.2238    
     18000  -3305608.2     -3305629.9      21.780633      422.31155     -4364.2422    
      9800  -3305606.8     -3305624.1      17.337789      336.16785     -4840.4414    
     18300  -3305604.4     -3305625.7      21.340038      413.76872     -2283.1474    
     18100  -3305608.8     -3305630.7      21.930647      425.22022     -1460.9544    
     18400  -3305604.6     -3305624.4      19.821585      384.32696     -7201.1435    
      9500  -3305608.6     -3305625.2      16.645961      322.75378     -6825.0376    
     18200  -3305609.5     -3305631        21.552465      417.88753     -5228.976     
      9900  -3305607.1     -3305624.1      16.975993      329.15288     -4214.8824    
     18500  -3305604.8     -3305625        20.192271      391.5143      -1618.9453    
     18300  -3305610.1     -3305631        20.836004      403.99584     -6453.5682    
      9600  -3305608.7     -3305625.5      16.788078      325.50933     -3123.2315    
     18600  -3305605       -3305626.4      21.409007      415.10598     -3289.9554    
     18400  -3305610.8     -3305632.2      21.393782      414.81079     -617.74345    
     10000  -3305607.4     -3305623.8      16.365205      317.31012     -7606.1102    
     18700  -3305605.2     -3305626.9      21.702231      420.7914      -3943.949     
     18500  -3305611.4     -3305632.2      20.720404      401.75443     -2369.1531    
      9700  -3305608.8     -3305625.6      16.79427       325.62939     -4013.434     
     18800  -3305605.4     -3305626.6      21.201071      411.07424     -5529.0566    
     18600  -3305612       -3305631.2      19.270611      373.64394     -4132.5464    
     10100  -3305607.5     -3305625.3      17.806232      345.25064     -6702.0492    
     18900  -3305605.5     -3305627.4      21.878042      424.20024     -2790.842     
     18700  -3305612.4     -3305632.4      19.946581      386.75053     -3617.5299    
      9800  -3305608.8     -3305625.5      16.777983      325.3136      -6254.0127    
     19000  -3305605.6     -3305626.6      21.018861      407.54132     -5004.0516    
     18800  -3305612.8     -3305632.1      19.367941      375.53111     -4501.9206    
     10200  -3305607.5     -3305624.5      16.9471        328.59265     -5584.0186    
     19100  -3305605.7     -3305626.7      20.991667      407.01405     -2659.3557    
     18900  -3305613       -3305633.9      20.882352      404.8945      -2895.9368    
      9900  -3305608.6     -3305625.8      17.209177      333.67415     -5072.2634    
     19200  -3305605.7     -3305626.1      20.384573      395.2429      -4294.8797    
     10300  -3305607.4     -3305625.3      17.802705      345.18226     -4821.197     
     19000  -3305613.2     -3305633        19.871614      385.29699     -4558.1301    
     19300  -3305605.7     -3305626        20.282969      393.27287     -4503.8366    
     19100  -3305613.2     -3305632.3      19.14833       371.273       -4304.0859    
     10000  -3305608.3     -3305625.9      17.57325       340.73328     -6137.4423    
     19400  -3305605.7     -3305626.4      20.751276      402.35303     -3836.8149    
     10400  -3305607.3     -3305624.2      16.970485      329.04607     -7030.8398    
     19200  -3305613       -3305633.8      20.730478      401.94976     -1210.8475    
     19500  -3305605.5     -3305626.3      20.753209      402.39051     -1994.893     
     19300  -3305612.8     -3305632.5      19.665445      381.29951     -5367.3285    
     10100  -3305608       -3305625.9      17.887869      346.83353     -6230.4443    
     10500  -3305606.9     -3305624.1      17.193297      333.36625     -6206.679     
     19600  -3305605.4     -3305626.5      21.157644      410.23223     -5511.9288    
     19400  -3305612.4     -3305632.3      19.91808       386.19792     -3526.9541    
     19700  -3305605.2     -3305626.1      20.915727      405.54161     -5083.6665    
     19500  -3305611.9     -3305632.4      20.47238       396.94542     -1815.0721    
     10200  -3305607.6     -3305625.3      17.673678      342.68051     -4397.0412    
     10600  -3305606.5     -3305624.4      17.822392      345.56398     -5112.4123    
     19800  -3305604.9     -3305626        21.051991      408.18368     -3711.7061    
     19600  -3305611.3     -3305631        19.731559      382.58141     -6897.6562    
     19900  -3305604.6     -3305626.4      21.767432      422.0556      -4900.2724    
     10300  -3305607.1     -3305625.4      18.260088      354.05059     -7332.382     
     19700  -3305610.7     -3305631.5      20.862821      404.5158      -2552.4595    
     10700  -3305606       -3305624.4      18.425482      357.25747     -5565.1125    
     20000  -3305604.3     -3305625.7      21.375737      414.4609      -3601.0285    
     19800  -3305610       -3305631.3      21.324034      413.45841     -4709.1562    
     20100  -3305604       -3305625.6      21.612809      419.05757     -4988.6252    
     10400  -3305606.7     -3305625.3      18.659093      361.78703     -3708.9164    
     19900  -3305609.2     -3305631        21.731567      421.3602      -4806.4423    
     10800  -3305605.4     -3305623.4      17.914684      347.35345     -6951.3161    
     20200  -3305603.6     -3305625.4      21.814116      422.96076     -5173.6266    
     20000  -3305608.5     -3305629.8      21.281356      412.63091     -6605.4681    
     10500  -3305606.1     -3305624        17.847553      346.05182     -3382.2439    
     20300  -3305603.3     -3305625        21.706236      420.86904     -3089.027     
     20100  -3305607.7     -3305630.4      22.619277      438.57228     -6711.4242    
     10900  -3305604.8     -3305622.2      17.459345      338.52473     -5278.4945    
     20200  -3305607       -3305629.1      22.126753      429.02258     -1505.5668    
     20400  -3305603       -3305623.8      20.7531        402.38839     -5697.7351    
     10600  -3305605.6     -3305624.4      18.742191      363.39825     -4852.7701    
     20300  -3305606.3     -3305630.2      23.835172      462.14765     -7174.154     
     20500  -3305602.7     -3305625.6      22.874516      443.5212      -3303.6154    
     11000  -3305604.1     -3305623.4      19.317279      374.5488      -3917.6202    
     20400  -3305605.7     -3305629        23.322813      452.21337     -2341.9828    
     20600  -3305602.4     -3305625.3      22.819277      442.45014     -3696.8708    
     10700  -3305605.1     -3305625.2      20.112179      389.96137     -2542.12      
     20500  -3305605.2     -3305627.2      21.982304      426.22181     -344.13929    
     20700  -3305602.2     -3305624.4      22.191225      430.27265     -8119.9107    
     11100  -3305603.4     -3305622.2      18.859302      365.66895     -5127.9137    
     20600  -3305604.8     -3305627.9      23.03768       446.68483     -6105.0811    
     20800  -3305602       -3305623        21.061729      408.3725       204.46602    
     10800  -3305604.6     -3305624.4      19.786386      383.64447     -5836.8324    
     20700  -3305604.6     -3305628.3      23.732818      460.16308     -2365.2007    
     11200  -3305602.6     -3305621.8      19.121576      370.75426     -4995.9865    
     20900  -3305601.8     -3305624.9      23.066593      447.24543     -4668.4584    
     20800  -3305604.5     -3305627.9      23.463715      454.94536     -4103.9951    
     21000  -3305601.7     -3305624.8      23.087065      447.64238     -4862.6956    
     10900  -3305604.2     -3305623.5      19.260887      373.45541     -4172.5549    
     11300  -3305601.9     -3305622.1      20.176906      391.21639     -5426.8402    
     20900  -3305604.5     -3305628        23.512555      455.89234     -3644.4955    
     21100  -3305601.7     -3305623.7      22.087127      428.25426     -957.61093    
     21000  -3305604.6     -3305627.9      23.320446      452.16747     -4652.4995    
     21200  -3305601.7     -3305624.9      23.240522      450.6178      -4382.5741    
     11000  -3305603.8     -3305623.4      19.553484      379.12867     -6660.1184    
     11400  -3305601.3     -3305621.7      20.36073       394.7806      -7379.7081    
     21100  -3305604.8     -3305627.4      22.649902      439.16608     -5097.711     
     21300  -3305601.8     -3305624.8      23.017083      446.28547     -4461.3163    
     21200  -3305605.1     -3305628.8      23.705768      459.63859     -4244.7573    
     21400  -3305602       -3305625.7      23.678708      459.11392     -3351.0548    
     11100  -3305603.5     -3305623.1      19.573388      379.51458     -140.44812    
     11500  -3305600.7     -3305621.3      20.558942      398.62379     -3083.6792    
     21300  -3305605.5     -3305628        22.44453       435.18406     -4549.409     
     21500  -3305602.2     -3305623.5      21.318369      413.34857     -3940.8612    
     21400  -3305606       -3305629        22.984407      445.65192     -4559.4051    
     21600  -3305602.4     -3305624.7      22.342081      433.19765     -4373.2697    
     11200  -3305603.3     -3305624        20.708245      401.51868     -4320.5736    
     11600  -3305600.2     -3305620.6      20.376954      395.09518     -5018.1013    
     21500  -3305606.5     -3305628.8      22.288992      432.16829     -4655.9137    
     21700  -3305602.6     -3305624.5      21.847147      423.60122     -4324.0213    
     21600  -3305607.1     -3305630.2      23.085474      447.61152     -6565.8763    
     11300  -3305603.2     -3305623        19.843176      384.74559     -3961.5838    
     21800  -3305602.9     -3305624.9      22.008749      426.73456     -5958.2711    
     11700  -3305599.9     -3305620.9      20.995386      407.08614     -4962.2147    
     21700  -3305607.7     -3305629.5      21.864411      423.93596     -6057.0277    
     21900  -3305603.1     -3305625.7      22.592742      438.05779     -824.86158    
     21800  -3305608.2     -3305629.9      21.739514      421.51429     -4202.7233    
     11400  -3305603.2     -3305623.1      19.926338      386.35804     -2114.2926    
     22000  -3305603.4     -3305625.9      22.497904      436.21895     -5888.6693    
     11800  -3305599.7     -3305621.4      21.720398      421.14364     -3365.5451    
     21900  -3305608.7     -3305630.6      21.93946       425.3911      -4540.7763    
     22100  -3305603.7     -3305625.6      21.920743      425.02818     -4448.7604    
     11500  -3305603.3     -3305623.2      19.835392      384.59466     -2334.3207    
     22000  -3305609.1     -3305630.2      21.110578      409.31964     -4962.0654    
     22200  -3305603.9     -3305626.2      22.301651      432.41373     -2455.4112    
     11900  -3305599.7     -3305620.3      20.608594      399.58651     -2890.0592    
     22100  -3305609.4     -3305630.5      21.13909       409.87248     -1331.4661    
     22300  -3305604       -3305626.5      22.46206       435.52395     -5685.0656    
     11600  -3305603.5     -3305624.1      20.547897      398.40965     -1070.9634    
     22200  -3305609.6     -3305630.8      21.199349      411.04085     -6678.5827    
     12000  -3305599.8     -3305621.6      21.796204      422.61347     -6780.5179    
     22400  -3305604.2     -3305626.2      22.072164      427.96413     -5667.3973    
     22300  -3305609.7     -3305630.3      20.554397      398.53568     -3353.109     
     22500  -3305604.2     -3305624.1      19.884234      385.54168     -3532.6394    
     11700  -3305603.8     -3305622.9      19.093462      370.20915      485.9787     
     22400  -3305609.8     -3305631.6      21.803565      422.75618     -1902.0066    
     12100  -3305600.1     -3305620.5      20.453209      396.57371     -5338.9269    
     22600  -3305604.3     -3305625.8      21.540038      417.64658     -4185.8295    
     22500  -3305609.8     -3305631.4      21.636506      419.51702     -4260.3183    
     22700  -3305604.2     -3305627.1      22.899052      443.99694     -6879.3692    
     11800  -3305604.2     -3305624.2      19.973705      387.27647     -1595.4501    
     22600  -3305609.6     -3305631.6      22.017852      426.91107     -5930.8632    
     12200  -3305600.4     -3305621.2      20.778999      402.89055     -6804.9957    
     22800  -3305604.1     -3305625.8      21.719909      421.13415     -3384.8028    
     22700  -3305609.4     -3305631.4      22.034235      427.22873     -3280.6941    
     22900  -3305603.9     -3305625.8      21.924159      425.09443     -5092.14      
     11900  -3305604.7     -3305625.2      20.463327      396.76989     -440.79373    
     22800  -3305609.1     -3305629.9      20.803654      403.36861     -4798.3561    
     12300  -3305600.9     -3305622.1      21.222126      411.48249     -5646.1099    
     23000  -3305603.6     -3305625.3      21.617891      419.15611     -6131.9219    
     22900  -3305608.7     -3305629.8      21.152112      410.12496     -4857.1584    
     12000  -3305605.2     -3305623.6      18.364876      356.08236     -1321.3435    
     23100  -3305603.3     -3305625.4      22.063481      427.79578     -5888.8106    
     23000  -3305608.2     -3305630.9      22.736267      440.84064     -3459.0651    
     12400  -3305601.4     -3305622.3      20.904368      405.32137     -5394.608     
     23200  -3305603       -3305625.1      22.139252      429.26493     -4831.7764    
     23100  -3305607.7     -3305630.6      22.954714      445.07618     -3157.695     
     12100  -3305605.7     -3305624.9      19.235637      372.96582     -1454.4721    
     23300  -3305602.6     -3305625.2      22.616404      438.51658     -6678.1368    
     23200  -3305607.1     -3305629.7      22.512053      436.49328     -5645.4587    
     12500  -3305602       -3305620.3      18.326377      355.3359      -5418.2109    
     23400  -3305602.1     -3305624.3      22.22496       430.92675     -2972.2342    
     23300  -3305606.6     -3305629.2      22.628514      438.75139     -3607.7101    
     12200  -3305606.2     -3305625.5      19.354164      375.26399     -3934.6907    
     23500  -3305601.7     -3305623.3      21.586316      418.54387     -4743.2005    
     23400  -3305606       -3305628.4      22.385069      434.03115     -3616.2742    
     12600  -3305602.6     -3305621.3      18.697688      362.53535     -2946.8252    
     23600  -3305601.2     -3305624        22.773056      441.55396     -4803.4748    
     23500  -3305605.5     -3305627.9      22.33874       433.13286     -4914.4202    
     12300  -3305606.7     -3305625.3      18.630189      361.22661     -2615.6489    
     23700  -3305600.8     -3305624        23.218824      450.19709     -3877.6122    
     12700  -3305603.2     -3305622.4      19.243967      373.12733     -8048.4828    
     23600  -3305605       -3305628.9      23.90659       463.53241     -6294.5909    
     23800  -3305600.4     -3305623.5      23.141808      448.70381     -6486.7708    
     23700  -3305604.6     -3305627.9      23.301951      451.80887     -3938.5931    
     12400  -3305607.1     -3305625.8      18.636748      361.35377     -2112.3889    
     23900  -3305600       -3305623.1      23.110027      448.08759     -6101.9841    
     12800  -3305603.8     -3305623.1      19.376608      375.69916     -6487.4695    
     23800  -3305604.2     -3305628.7      24.457578      474.21568     -2786.6481    
     24000  -3305599.7     -3305624.1      24.352392      472.17619     -5276.2771    
     23900  -3305604       -3305627.7      23.716274      459.8423      -5673.6884    
     12500  -3305607.5     -3305626.1      18.534225      359.36593     -4203.8529    
     24100  -3305599.4     -3305623.3      23.899561      463.39611     -6680.576     
     12900  -3305604.3     -3305622.7      18.416247      357.07841     -7410.2445    
     24000  -3305603.9     -3305628        24.127991      467.82522     -3868.8288    
     24200  -3305599.3     -3305623.9      24.687252      478.6689      -4764.0348    
     24100  -3305603.9     -3305627.7      23.780761      461.09267     -2641.2662    
     12600  -3305607.9     -3305625.1      17.225013      333.98121     -5246.8363    
     24300  -3305599.1     -3305622.2      23.047377      446.87285     -3856.0022    
     13000  -3305604.7     -3305622.8      18.080804      350.5744      -6229.4883    
     24200  -3305604.1     -3305629        24.913011      483.04621     -6282.2649    
     24400  -3305599.1     -3305620.7      21.628745      419.36655     -3176.9125    
     24300  -3305604.4     -3305629        24.635332      477.66221     -4376.5516    
     12700  -3305608.1     -3305626.5      18.393133      356.63025     -1587.6951    
     24500  -3305599       -3305622.5      23.417532      454.04991     -2825.9649    
     13100  -3305605       -3305622.1      17.090921      331.38126     -8293.005     
     24400  -3305604.8     -3305629        24.201438      469.2493      -3643.5665    
     24600  -3305599.1     -3305622.8      23.738131      460.26609     -6968.6855    
     24500  -3305605.3     -3305627.6      22.328192      432.92834     -5037.7821    
     12800  -3305608.3     -3305625.7      17.367948      336.75262     -2611.0778    
     13200  -3305605.2     -3305623.4      18.156902      352.0499      -5749.2552    
     24700  -3305599.2     -3305624.9      25.76429       499.55193     -7321.5666    
     24600  -3305605.9     -3305628.4      22.499516      436.2502      -6093.4798    
     24800  -3305599.3     -3305623.7      24.345244      472.03761     -3840.2711    
     24700  -3305606.4     -3305629.1      22.748388      441.07565     -3057.7504    
     12900  -3305608.4     -3305626        17.632576      341.88357     -1985.9824    
     13300  -3305605.3     -3305623.3      18.005701      349.11821     -4661.7484    
     24900  -3305599.6     -3305623.3      23.702881      459.58263     -2907.6252    
     24800  -3305606.9     -3305630.4      23.472361      455.11299     -5552.3455    
     25000  -3305599.9     -3305623.4      23.50592       455.76368     -2317.842     
     13000  -3305608.3     -3305625.7      17.358914      336.57745     -3843.8784    
     24900  -3305607.4     -3305630.4      22.913786      444.2826      -2548.4508    
     13400  -3305605.3     -3305623.3      18.050249      349.98197     -7714.6985    
     25100  -3305600.2     -3305624.4      24.175637      468.74903     -4425.7184    
     25000  -3305607.9     -3305631.1      23.180042      449.44514     -5746.9104    
     25200  -3305600.6     -3305622.8      22.205776      430.55479     -3293.3098    
     13100  -3305608.2     -3305626.8      18.653598      361.68049      123.5189     
     25100  -3305608.4     -3305631        22.577493      437.76213     -2589.3586    
     13500  -3305605.1     -3305623.5      18.40286       356.81885     -4663.6964    
     25300  -3305600.9     -3305624.2      23.355279      452.84285     -5009.9838    
     25200  -3305608.8     -3305631.5      22.717436      440.47553     -4778.5541    
     25400  -3305601.2     -3305624.5      23.292851      451.63242     -2247.3072    
     13200  -3305608       -3305626.9      18.970557      367.82611     -2383.1979    
     25300  -3305609.1     -3305629.6      20.564064      398.72311     -3640.1586    
     13600  -3305604.9     -3305623.4      18.51445       358.9825      -6789.9582    
     25500  -3305601.5     -3305625.4      23.916923      463.73275     -6278.4641    
     25400  -3305609.3     -3305630.7      21.388533      414.70901     -4841.5485    
     25600  -3305601.7     -3305624.2      22.452193      435.33264     -2552.262     
     13300  -3305607.7     -3305626.7      19.02444       368.87086     -402.69154    
     13700  -3305604.6     -3305624.3      19.688124      381.73923     -7738.064     
     25500  -3305609.4     -3305630.3      20.873118      404.71546     -5711.7143    
     25700  -3305602       -3305624.4      22.406791      434.45232     -6805.8713    
     25600  -3305609.4     -3305630.9      21.475154      416.38852     -1926.0964    
     25800  -3305602.1     -3305625.9      23.805401      461.57042     -4706.9861    
     13400  -3305607.3     -3305625.7      18.33417       355.48701     -3616.3968    
     13800  -3305604.2     -3305623.6      19.406542      376.27955     -4637.5349    
     25700  -3305609.3     -3305631.2      21.943099      425.46166     -4926.5403    
     25900  -3305602.2     -3305624.9      22.62832       438.74763     -1827.0451    
     25800  -3305609.1     -3305632.3      23.28414       451.46353     -5189.7658    
     26000  -3305602.3     -3305623.3      21.075971      408.64864     -5248.5534    
     13500  -3305606.9     -3305626        19.052335      369.41173     -2431.7477    
     13900  -3305603.8     -3305623.3      19.417272      376.4876      -5334.8186    
     25900  -3305608.8     -3305630        21.18212       410.70679     -3444.4407    
     26100  -3305602.2     -3305625.3      23.071605      447.34263     -3071.2979    
     26000  -3305608.4     -3305631.4      23.02869       446.51052     -4874.1991    
     13600  -3305606.5     -3305625.8      19.223953      372.73927     -398.17635    
     14000  -3305603.4     -3305622.8      19.358948      375.35674     -7543.8862    
     26200  -3305602.1     -3305624.1      21.996683      426.50062     -2694.6951    
     26100  -3305608       -3305630.7      22.718329      440.49283     -4247.2339    
     26300  -3305601.9     -3305624.9      22.990436      445.7688      -4464.0638    
     26200  -3305607.5     -3305629.7      22.24084       431.23465     -4810.1361    
     13700  -3305606.1     -3305625.5      19.429701      376.7286      -4681.2619    
     14100  -3305603       -3305624        21.011452      407.39767     -2917.0042    
     26400  -3305601.6     -3305624.4      22.771421      441.52226     -4485.1112    
     26300  -3305606.9     -3305630.7      23.739763      460.29774     -5135.8738    
     26500  -3305601.3     -3305625        23.729511      460.09897     -6177.1889    
     26400  -3305606.4     -3305630.3      23.877907      462.97626     -6046.0201    
     13800  -3305605.6     -3305625.2      19.519046      378.46092     -2406.6115    
     14200  -3305602.6     -3305623.3      20.659878      400.58088     -6694.2508    
     26600  -3305600.9     -3305624.1      23.224257      450.30243     -2338.2122    
     26500  -3305605.8     -3305630.1      24.323596      471.61786     -4796.8243    
     26700  -3305600.5     -3305623.9      23.402545      453.75931     -2773.6236    
     26600  -3305605.2     -3305628.1      22.919397      444.3914      -3682.563     
     13900  -3305605.2     -3305626.2      21.003694      407.24725     -3010.0004    
     14300  -3305602.2     -3305621.6      19.44332       376.99265     -5298.1847    
     26800  -3305600.1     -3305622.4      22.377769      433.88961     -3112.9303    
     26700  -3305604.6     -3305628.5      23.821961      461.8915      -4855.3809    
     26900  -3305599.6     -3305623.1      23.42584       454.21099     -3613.3835    
     26800  -3305604.1     -3305630.2      26.154812      507.1239      -5556.1894    
     14000  -3305604.9     -3305625.9      21.07945       408.7161      -3215.0347    
     14400  -3305601.8     -3305620.3      18.468432      358.09024     -3961.1831    
     27000  -3305599.2     -3305622.9      23.644533      458.4513      -3629.5903    
     26900  -3305603.6     -3305627.3      23.686386      459.26279     -2714.8849    
     27100  -3305598.8     -3305623.6      24.773822      480.34745     -5455.3552    
     27000  -3305603.2     -3305628.7      25.474592      493.9349      -5011.0267    
     14100  -3305604.5     -3305625.5      20.992362      407.02752     -4598.7555    
     14500  -3305601.5     -3305621.5      20.041446      388.58991     -7521.4205    
     27200  -3305598.4     -3305622.4      23.952837      464.42911     -2580.2351    
     27100  -3305602.9     -3305626        23.087502      447.65085     -4176.4523    
     27300  -3305598.1     -3305622.8      24.671966      478.37251     -1768.8746    
     14200  -3305604.3     -3305624        19.69153       381.80527     -3961.9593    
     27200  -3305602.7     -3305628.4      25.670404      497.73155     -3157.2746    
     14600  -3305601.1     -3305621.1      19.916958      386.17618     -4460.7147    
     27400  -3305597.8     -3305623        25.228077      489.15512     -3794.9793    
     27300  -3305602.6     -3305628.2      25.649458      497.32542     -5356.9624    
     14300  -3305604.1     -3305623.7      19.621762      380.45252     -5000.2489    
     27500  -3305597.6     -3305621.6      24.067598      466.65425     -3051.733     
     27400  -3305602.6     -3305627.7      25.068945      486.06967     -6082.7145    
     14700  -3305600.9     -3305621.9      21.003472      407.24293     -4354.1661    
     27600  -3305597.4     -3305620.8      23.465496      454.97989     -5000.7949    
     27500  -3305602.7     -3305627.6      24.883628      482.4765      -3643.8505    
     14400  -3305604       -3305622.8      18.803903      364.5948      -4868.3503    
     14800  -3305600.7     -3305622        21.270105      412.41276     -3373.8573    
     27700  -3305597.2     -3305621.3      24.063779      466.58018     -5034.7522    
     27600  -3305602.9     -3305627.3      24.403068      473.15878     -3916.0235    
     27800  -3305597.1     -3305622.4      25.330476      491.14057     -1036.1395    
     27700  -3305603.2     -3305627.3      24.133515      467.93233     -4575.4283    
     14500  -3305603.8     -3305625.4      21.538259      417.61209     -1470.6955    
     14900  -3305600.7     -3305621.9      21.239385      411.81713     -6377.4151    
     27800  -3305603.6     -3305628.9      25.325944      491.0527      -2585.9835    
     27900  -3305597       -3305621.6      24.615781      477.28313     -5149.5242    
[...]
    240000  -3305626.3     -3305641.1      14.781786      286.6087      -303.56079    
    242000  -3305626.9     -3305642.8      15.943784      309.13904      2063.0107    
    240100  -3305626       -3305641.6      15.664078      303.71574     -1692.5568    
    242100  -3305626.8     -3305642.4      15.630177      303.05843     -2709.4939    
    240200  -3305625.7     -3305641.3      15.581355      302.11179      967.7012     
    242200  -3305626.6     -3305641.9      15.230233      295.30379     -2689.6362    
    240300  -3305625.5     -3305640.7      15.240096      295.49503     -1681.299     
    242300  -3305626.5     -3305642.6      16.055915      311.31319      1540.3488    
    240400  -3305625.3     -3305641.1      15.740575      305.19896      844.81135    
    242400  -3305626.3     -3305642.3      16.033123      310.87127     -1623.2388    
    240500  -3305625.2     -3305641.5      16.211952      314.33864     -772.21429    
    242500  -3305626.1     -3305641.3      15.13504       293.45805      799.72087    
    240600  -3305625.2     -3305641        15.767342      305.71797      469.5027     
    242600  -3305625.9     -3305641.4      15.45132       299.59051      815.31628    
    240700  -3305625.1     -3305639.9      14.792774      286.82175      98.836999    
    242700  -3305625.8     -3305641.5      15.713463      304.67329      1573.8643    
    240800  -3305625.1     -3305641        15.910854      308.50055      620.84861    
    242800  -3305625.7     -3305642        16.379117      317.57986     -3234.1868    
    240900  -3305625.1     -3305640.7      15.608586      302.63979      3033.5353    
    242900  -3305625.6     -3305642.3      16.729723      324.37787     -998.70683    
    241000  -3305625.1     -3305640        14.882681      288.56498      939.7609     
    243000  -3305625.5     -3305641.2      15.684781      304.11716      3079.3839    
    241100  -3305625.1     -3305640.6      15.494901      300.43551     -747.66497    
    243100  -3305625.4     -3305641.3      15.822372      306.78495     -2722.665     
    241200  -3305625       -3305640.6      15.546898      301.44369      1164.2008    
    243200  -3305625.5     -3305641.6      16.178228      313.68476      3768.1406    
    241300  -3305625.1     -3305640.6      15.539377      301.29788     -1819.1026    
    243300  -3305625.5     -3305641.5      15.99328       310.09875     -2012.6153    
    241400  -3305625.1     -3305640.9      15.760707      305.5893      -1361.4633    
    243400  -3305625.6     -3305641.3      15.666078      303.75453      994.82644    
    241500  -3305625.1     -3305640.7      15.512462      300.77602      448.04374    
    243500  -3305625.8     -3305641.1      15.23607       295.41696     -2509.4323    
    241600  -3305625.2     -3305640.2      15.017188      291.17299     -2404.6708    
    243600  -3305626.1     -3305642.1      16.044089      311.08389      2212.2646    
    241700  -3305625.3     -3305640.7      15.475631      300.06189      317.37541    
    243700  -3305626.4     -3305641.8      15.346024      297.54889     -1913.9687    
    241800  -3305625.4     -3305640.9      15.534967      301.21237     -1182.7825    
    243800  -3305626.8     -3305641.7      14.890371      288.7141       1343.2069    
    241900  -3305625.5     -3305641.1      15.603598      302.54307      1569.3856    
    243900  -3305627.2     -3305642.3      15.142046      293.59389     -714.77022    
    242000  -3305625.8     -3305640.9      15.059176      291.9871      -1962.8877    
    244000  -3305627.5     -3305641.9      14.425709      279.70462     -213.40564    
    242100  -3305626       -3305640.4      14.404732      279.29788     -1538.1747    
    244100  -3305627.7     -3305642.3      14.652839      284.1085       1863.8508    
    242200  -3305626.2     -3305641.5      15.303868      296.73152      213.22458    
    244200  -3305627.8     -3305642.9      15.100181      292.78217     -1395.405     
    242300  -3305626.4     -3305641.3      14.814163      287.23648      164.29645    
    244300  -3305627.9     -3305643.3      15.357089      297.76344      1953.3284    
    242400  -3305626.7     -3305641        14.326833      277.78748      2043.7183    
    244400  -3305627.9     -3305642.6      14.65004       284.05424     -1363.7236    
    242500  -3305626.9     -3305640.9      13.996703      271.38648     -2699.8634    
    244500  -3305627.9     -3305642.5      14.635082      283.76422     -1348.1967    
    242600  -3305627       -3305641.8      14.877441      288.46339      46.889932    
    244600  -3305627.8     -3305642.3      14.505695      281.25549     -1296.4195    
    242700  -3305627       -3305642.5      15.440037      299.37174      749.03459    
    244700  -3305627.6     -3305642.2      14.600459      283.09289      749.52372    
    242800  -3305627.1     -3305642.3      15.245056      295.5912      -635.12037    
    244800  -3305627.5     -3305642.3      14.850231      287.9358      -656.45726    
    242900  -3305627       -3305641.4      14.405612      279.31495      360.03093    
    244900  -3305627.2     -3305642.1      14.876235      288.44001     -3475.1755    
    243000  -3305627       -3305641.9      14.941734      289.70999      1170.9851    
    245000  -3305627       -3305642.3      15.329217      297.22302      1107.2276    
    243100  -3305626.6     -3305641.9      15.277178      296.21402      2198.0278    
    245100  -3305626.7     -3305642.1      15.314317      296.93411     -1333.9434    
    243200  -3305626.2     -3305641.2      14.946448      289.80139     -1558.6248    
    245200  -3305626.5     -3305642.2      15.697482      304.36342     -552.95428    
    243300  -3305625.8     -3305640.6      14.771867      286.41639     -1168.0988    
    245300  -3305626.3     -3305641.7      15.350858      297.64261      1025.6227    
    243400  -3305625.3     -3305640.6      15.293793      296.53617      827.62927    
    245400  -3305626.2     -3305641.5      15.328215      297.20358     -992.90642    
    243500  -3305625       -3305640.2      15.186594      294.45766      909.11784    
    245500  -3305626.1     -3305642        15.89475       308.18831      1955.2191    
    243600  -3305624.8     -3305641.2      16.45579       319.06649     -1232.4126    
    245600  -3305626       -3305642.1      16.109454      312.35128     -1625.7852    
    243700  -3305624.6     -3305640.8      16.17613       313.64408      1489.7653    
    245700  -3305626       -3305640.8      14.80573       287.07296     -271.12511    
    243800  -3305624.6     -3305640.5      15.897903      308.24945     -740.86509    
    245800  -3305626       -3305641.5      15.559944      301.69666     -1451.9242    
    243900  -3305624.5     -3305640.2      15.69774       304.36842      1022.7816    
    245900  -3305626       -3305641.8      15.810569      306.5561       899.6019     
    244000  -3305624.5     -3305640.4      15.814106      306.62468      1339.813     
    246000  -3305626       -3305642        15.96832       309.61479     -418.62847    
    244100  -3305624.5     -3305639.9      15.360434      297.82829     -1685.3502    
    246100  -3305626.1     -3305642.3      16.227481      314.63974     -482.18174    
    244200  -3305624.6     -3305641.3      16.76088       324.98197     -786.12464    
    246200  -3305626.2     -3305642.3      16.104167      312.24876      1607.1418    
    244300  -3305624.6     -3305640.3      15.66223       303.6799       961.78141    
    246300  -3305626.2     -3305642.5      16.269364      315.45182     -1939.3847    
    244400  -3305624.7     -3305640.4      15.711823      304.64149      824.20067    
    246400  -3305626.4     -3305641.5      15.111217      292.99615      991.09864    
    244500  -3305624.9     -3305641.1      16.212432      314.34795     -1141.2323    
    246500  -3305626.4     -3305641.6      15.185892      294.44404      1231.3105    
    244600  -3305625       -3305640.2      15.218516      295.0766      -879.45724    
    246600  -3305626.5     -3305642.7      16.186888      313.85267      2499.89      
    244700  -3305625.2     -3305640.7      15.504264      300.61707      2679.5004    
    246700  -3305626.6     -3305641.4      14.750849      286.00885     -4523.9618    
    244800  -3305625.4     -3305641.1      15.755316      305.48478      908.94314    
    246800  -3305626.7     -3305641.7      15.004029      290.91785      268.18102    
    244900  -3305625.6     -3305640.6      15.038622      291.58858     -676.66455    
    246900  -3305626.8     -3305642.9      16.080007      311.78032      1750.4408    
    245000  -3305625.8     -3305640.7      14.861645      288.15711     -419.61225    
    247000  -3305626.9     -3305642.6      15.794622      306.24691     -60.411217    
    245100  -3305626       -3305641.5      15.492929      300.39728      740.09575    
    247100  -3305626.9     -3305642.7      15.725863      304.91372      1245.5283    
    245200  -3305626.2     -3305641.3      15.088166      292.5492       206.93051    
    247200  -3305627       -3305642.7      15.698492      304.383       -2011.1423    
    245300  -3305626.3     -3305641.3      14.973827      290.33224     -331.62272    
    247300  -3305627.2     -3305642.9      15.778482      305.93397     -553.61732    
    245400  -3305626.5     -3305641.6      15.143491      293.62192     -696.17983    
    247400  -3305627.3     -3305642.5      15.170208      294.13994      926.18259    
    245500  -3305626.6     -3305641.5      14.95186       289.90632     -522.85605    
    247500  -3305627.5     -3305642.2      14.741776      285.83294     -355.24626    
    245600  -3305626.7     -3305642.1      15.415121      298.88865     -404.9105     
    247600  -3305627.7     -3305642.7      14.969177      290.24209      353.52464    
    245700  -3305626.7     -3305641.7      14.972193      290.30057     -269.89555    
    247700  -3305628       -3305642.2      14.170544      274.75715     -215.95092    
    245800  -3305626.8     -3305641.8      15.053102      291.86933     -32.432242    
    247800  -3305628.3     -3305642.7      14.416286      279.5219       1265.2051    
    245900  -3305626.8     -3305642.3      15.427958      299.13754      124.53109    
    247900  -3305628.6     -3305642.3      13.665397      264.96268      1456.0763    
    246000  -3305626.7     -3305642.9      16.14736       313.08625      500.17213    
    248000  -3305628.9     -3305643.2      14.308476      277.43154     -74.567594    
    246100  -3305626.6     -3305641.8      15.209789      294.9074      -560.18199    
    248100  -3305629       -3305642.9      13.963561      270.74389     -1191.6843    
    246200  -3305626.4     -3305641.3      14.812806      287.21017      211.35392    
    248200  -3305629       -3305643.6      14.541465      281.94904      933.21508    
    246300  -3305626.2     -3305641        14.838469      287.70774     -522.52654    
    248300  -3305629       -3305642.5      13.495262      261.66388      331.40006    
    246400  -3305625.8     -3305642        16.204282      314.18992     -1688.7417    
    248400  -3305628.9     -3305643.3      14.447459      280.12633     -889.89244    
    246500  -3305625.5     -3305640.6      15.073101      292.2571       2360.1874    
    248500  -3305628.7     -3305642.9      14.229354      275.89742     -392.90476    
    246600  -3305625.2     -3305640.1      14.920875      289.30554      3.3724491    
    248600  -3305628.4     -3305643.4      14.973219      290.32046      3136.3341    
    246700  -3305624.9     -3305640.8      15.904053      308.36869      110.69845    
    248700  -3305628       -3305642.5      14.445394      280.08629     -3012.0208    
    246800  -3305624.7     -3305640.7      15.957066      309.39657      778.0052     
    248800  -3305627.7     -3305643.1      15.471952      299.99054      1519.7536    
    246900  -3305624.6     -3305639.9      15.358695      297.79457      1205.072     
    248900  -3305627.4     -3305642.9      15.519211      300.90686      499.56218    
    247000  -3305624.5     -3305641        16.564411      321.17258      1379.1357    
    249000  -3305627.1     -3305642.3      15.142096      293.59486     -540.94184    
    247100  -3305624.4     -3305640.4      16.010968      310.44171      2490.078     
    249100  -3305627       -3305641.7      14.746542      285.92534      1287.1709    
    247200  -3305624.3     -3305640.2      15.919208      308.66254     -840.91427    
    249200  -3305626.8     -3305642        15.132326      293.40544      890.12623    
    247300  -3305624.3     -3305640.9      16.584901      321.56986      847.48905    
    249300  -3305626.7     -3305642.1      15.333427      297.30464     -487.84436    
    247400  -3305624.4     -3305640.6      16.214818      314.39421      1045.5074    
    249400  -3305626.7     -3305641.9      15.238724      295.46842      226.1471     
    247500  -3305624.4     -3305640.7      16.304686      316.1367      -966.64225    
    249500  -3305626.6     -3305641.6      14.985063      290.55011      168.31775    
    247600  -3305624.5     -3305640.8      16.25243       315.12349      131.26091    
    249600  -3305626.5     -3305642.3      15.806639      306.4799      -224.23997    
    247700  -3305624.7     -3305640.8      16.006127      310.34784     -615.58219    
    249700  -3305626.4     -3305642.3      15.835471      307.03893      990.60751    
    247800  -3305625       -3305640.7      15.741961      305.22585     -1302.5455    
    249800  -3305626.4     -3305641.9      15.48925       300.32595     -1304.6712    
    247900  -3305625.3     -3305640.8      15.591095      302.30065      1208.3735    
    249900  -3305626.4     -3305641.9      15.545319      301.41308      2239.6127    
    248000  -3305625.5     -3305640.7      15.21919       295.08968     -747.29776    
    250000  -3305626.3     -3305641.8      15.4443        299.45441      238.52595    
Loop time of 8264.31 on 72 procs for 50000 steps with 400 atoms

Performance: 1.045 ns/day, 22.956 hours/ns, 6.050 timesteps/s, 2.420 katom-step/s
93.3% CPU use with 72 MPI tasks x 1 OpenMP threads

MPI task timing breakdown:
Section |  min time  |  avg time  |  max time  |%varavg| %total
---------------------------------------------------------------
Pair    | 3643.8     | 6171.4     | 7847       |1105.2 | 74.68
Bond    | 0.021014   | 0.045311   | 0.069245   |   5.8 |  0.00
Neigh   | 0.044479   | 0.072564   | 0.097163   |   3.8 |  0.00
Comm    | 404.92     | 2080.4     | 4608       |1903.4 | 25.17
Output  | 1.9419     | 1.9486     | 2.3376     |   3.3 |  0.02
Modify  | 8.9055     | 9.1766     | 9.4023     |   3.8 |  0.11
Other   |            | 1.188      |            |       |  0.01

Nlocal:        5.55556 ave           8 max           3 min
Histogram: 10 0 8 0 16 0 16 0 14 8
Nghost:        384.111 ave         391 max         374 min
Histogram: 1 4 5 2 9 16 8 14 8 5
Neighs:              0 ave           0 max           0 min
Histogram: 72 0 0 0 0 0 0 0 0 0
FullNghs:      478.972 ave         713 max         243 min
Histogram: 10 4 4 8 8 7 9 13 3 6

Total # of neighbors = 34486
Ave neighs/atom = 86.215
Ave special neighs/atom = 0
Neighbor list builds = 1564
Dangerous builds = 0
System init for write_restart ...
    248100  -3305625.8     -3305640.6      14.842853      287.79276      499.72617    
    248200  -3305626       -3305641.6      15.59164       302.31121      745.04894    
    248300  -3305626.2     -3305641.1      14.86415       288.20569     -385.27805    
    248400  -3305626.3     -3305640.8      14.537122      281.86485      2081.8623    
    248500  -3305626.4     -3305641.2      14.797569      286.91472      929.55449    
    248600  -3305626.4     -3305641.8      15.328809      297.21511     -3289.1263    
    248700  -3305626.4     -3305641.2      14.759721      286.18089      3814.7987    
    248800  -3305626.4     -3305641.7      15.283521      296.337        1362.9571    
    248900  -3305626.3     -3305641.8      15.480643      300.15907     -2104.0439    
    249000  -3305626.2     -3305641.8      15.61196       302.70521      920.44098    
    249100  -3305626.1     -3305641.7      15.638909      303.22774      197.61508    
    249200  -3305625.9     -3305641.2      15.263563      295.95002     -2183.6817    
    249300  -3305625.8     -3305641.7      15.884263      307.98497      957.98533    
    249400  -3305625.6     -3305641        15.383562      298.27672      1459.1729    
    249500  -3305625.6     -3305641.8      16.286463      315.78336     -1807.664     
    249600  -3305625.6     -3305641.3      15.710003      304.60619      44.685394    
    249700  -3305625.5     -3305642        16.480248      319.54072      45.390162    
    249800  -3305625.5     -3305641.4      15.943551      309.13454      404.65256    
    249900  -3305625.5     -3305640.6      15.141487      293.58305     -881.75786    
    250000  -3305625.5     -3305640.3      14.835102      287.64246     -1469.028     
Loop time of 8115.74 on 72 procs for 50000 steps with 400 atoms

Performance: 1.065 ns/day, 22.544 hours/ns, 6.161 timesteps/s, 2.464 katom-step/s
93.0% CPU use with 72 MPI tasks x 1 OpenMP threads

MPI task timing breakdown:
Section |  min time  |  avg time  |  max time  |%varavg| %total
---------------------------------------------------------------
Pair    | 2091.3     | 6091.4     | 7852.5     |1329.9 | 75.06
Bond    | 0.020554   | 0.042126   | 0.070867   |   5.5 |  0.00
Neigh   | 0.036682   | 0.072981   | 0.097316   |   4.1 |  0.00
Comm    | 251.65     | 2013       | 6012.7     |2313.5 | 24.80
Output  | 1.8903     | 1.8954     | 2.1922     |   2.6 |  0.02
Modify  | 7.8743     | 8.3208     | 8.6865     |   6.2 |  0.10
Other   |            | 1.029      |            |       |  0.01

Nlocal:        5.55556 ave           9 max           2 min
Histogram: 2 6 8 0 16 20 0 15 4 1
Nghost:        389.986 ave         399 max         381 min
Histogram: 2 8 6 8 6 19 8 5 8 2
Neighs:              0 ave           0 max           0 min
Histogram: 72 0 0 0 0 0 0 0 0 0
FullNghs:      480.972 ave         799 max         164 min
Histogram: 3 5 7 6 12 18 6 10 4 1

Total # of neighbors = 34630
Ave neighs/atom = 86.575
Ave special neighs/atom = 0
Neighbor list builds = 1582
Dangerous builds = 0
System init for write_restart ...
                                  
================================= 
Global information about the job: 
================================= 
  
Job owner: thuss(30998)
Job name:  MD_short
Node list: ravc3091
Job start: Fri Feb 24 12:06:13 CET 2023
Job end:   Fri Feb 24 23:25:28 CET 2023
Work dir:  /ptmp/thuss/naps/sampl_compar/grid_voro/./
Command:   /raven/ptmp/thuss/naps/sampl_compar/grid_voro/geom.job
  
  
  
==========================================================================================
Information on jobsteps (Note: MaxRSS/AveRSS is the maximum/average over all 
tasks of the per-task memory high-water marks; cf. "man sacct"): 
==========================================================================================
  
JobID            JobName NNodes NTasks  NCPUS        0.00M        0.00M    Elapsed ExitCode
------------- ---------- ------ ------ ------ ------------ ------------ ---------- --------
4282867         MD_short      3           432                             11:19:15      0:0
4282867.0            lmp      1     72     72      255.92M      250.32M   11:16:13      0:0
4282867.1            lmp      1     72     72      255.92M      248.60M   06:00:51      0:0
4282867.2            lmp      1     72     72      258.24M      248.64M   05:59:44      0:0
4282867.3            lmp      1     72     72      256.39M      249.22M   11:19:10      0:0
  
Maximum memory per node: 19.496706 GB (defined as MaxRSS*Ntasks/NNodes)
CPU utilization: 101.8 %
  
