400
Lattice="21.734549581036095 -0.00013389566047180637 -6.612151253296369e-05 -0.00013389251408440684 21.736551254610433 -0.0003279296223100227 -6.737517571517684e-05 -0.00033415427035348236 22.14895408001724" Properties=species:S:1:pos:R:3:forces:R:3 energy=-3305335.0347273205 free_energy=-3305335.0347273205 pbc="T T T"
P       19.10123892      15.03321186      15.30356735       0.50844884      -0.93128356      -1.08010433
S       17.93650970      16.61254922      14.89729422       0.25936699      -1.75806296      -1.56487059
S       20.60873077      15.00087101      14.00284665       0.69755063      -0.37249998      -0.94118850
S       19.83113103      15.41333447      17.21622454       0.00097548       0.04782345      -1.07929750
S       17.66726592      13.46254721      15.25659012      -0.27279243      -1.05365550      -0.80289129
P        2.76095784       2.46407818      11.14537118       0.45218216       0.37216612       0.07155870
S        1.12123393       3.34172870      10.33898718       0.53757788       1.16681128      -0.53780588
S        4.43621648       2.79386324       9.99877417       0.08746076       0.88277535      -0.25709534
S        3.04809274       2.63515390      13.13755060       0.05310923       0.38428182       0.31874115
S        2.57743633       0.41837758      10.50380931       1.16056936       1.60907741      -0.09950883
P        8.06808693       2.22418747       2.23241434      -0.84594086       0.18583628       0.26766575
S        6.96939782       3.98603324       2.22616087      -0.34650201       0.37926381      -0.56178462
S        8.44978015       1.44432463       0.42795224       0.73586316      -0.18884372       1.24748444
S        9.83390155       2.59781799       3.16514108      -2.01952917       0.04259831       1.32074474
S        7.11732859       0.61388754       3.06892606      -1.09589872      -0.76049007      -1.92569628
P       13.71091178       2.05653891       6.80563465       0.52646928      -1.71327580       0.83423300
S       14.52611379       3.43818767       5.60337214       0.65087453      -1.40522683       1.22405270
S       13.68587965       0.65199613       5.15238054       0.36699435       0.04874079      -0.27737276
S       14.66905284       2.01666235       8.61369650       0.71113939       0.18455450       1.15697896
S       11.70473367       2.50293590       7.07270228       0.95652337      -1.15774766       1.62505625
P        8.14866302      15.09973213      15.52991758       0.01986460      -1.03212820      -0.24967041
S        6.19656695      14.73324683      16.07879987      -0.14940240      -0.17373563       0.33042426
S        8.15740482      15.88954856      13.48850399       0.16278744      -1.17348236      -0.48303218
S        9.09597296      16.35602781      16.96954279       0.66088950      -2.13112130       0.47833181
S        9.36084662      13.49681022      15.53243520       0.37685180      -0.90000799      -0.14158975
P       13.64120311       6.82394671      15.43274165       0.95114550       1.08899550      -0.77202642
S       11.64532883       6.37080059      15.78526909       1.46266042       0.73019120      -0.35706868
S       13.89905042       6.77415093      13.36123203       0.16687297       0.54727991      -1.15137738
S       14.39481705       8.49851603      16.25628745       0.55430063       1.47823863      -1.95763296
S       14.82327662       5.18452907      16.01772455       0.24602321       1.15670807      -1.86116553
P        8.10232366      19.70461012      15.65666760      -0.68939204       0.60753025      -0.83276717
S        7.22723887      21.41817348      16.24084832      -0.53069545       0.65372056      -1.10015622
S        8.14059228      19.34913741      13.70765086       0.26263343       0.12954208      -0.03547519
S       10.08662799      19.47117970      16.16365525      -0.90963881       0.71735380       1.48845922
S        6.78776927      17.98374859      16.13185721      -1.92362375       0.63375364      -0.05390518
P       13.50467796      10.69778140      11.15603717      -0.71797335      -0.25810692       0.68806839
S       13.77387079      12.76650491      10.70834764      -0.32831898      -1.01044656      -0.32110517
S       13.50424585       9.97584136       9.24377071      -1.00451212       0.63197132       0.67511644
S       15.20534755      10.25047432      12.22194443      -0.88635870      -0.18947160       0.36583536
S       11.74492035      10.29032641      12.10540339      -0.62732611      -0.23872929       0.36133934
P       13.55325081      19.51665896       2.13081968      -0.30678059      -0.52000335      -0.06427239
S       11.59733427      19.83561485       1.55489892      -1.15255472      -0.76883023       1.61946159
S       14.86333444      20.65891568       1.12434860      -1.62822646       0.42902660      -1.04161753
S       13.67501904      20.20152251       4.14756744       0.51604967      -0.42463835      -1.46688792
S       14.05452971      17.48579260       2.09073185      -0.57480976      -0.54944601       0.11716882
P        8.20598122       2.12489603      19.88085856      -0.11796675      -0.79487877      -0.11158822
S        7.18466407       1.78411701      18.12536170      -0.19350462       0.87113394      -0.34505199
S        9.61433110       0.83016939      20.62752694       0.48761926      -0.38707221       1.09190706
S        9.29330936       3.82326983      19.71104486       0.50431466      -0.91126257       0.05100437
S        6.71083135       2.31458003      21.53345928      -0.49931894      -0.17313299       0.60266840
P        2.66139459      19.41033442      19.86032744      -0.81149733      -0.72442676      -0.14359515
S        2.36251441      19.18831913      17.88119761       0.53680543      -0.40253208      -0.47656056
S        2.27309993      17.82191101      21.05085300       0.37560723      -0.80321849       0.30042536
S        4.59038009      20.11737415      20.39387868      -1.58948072       1.80637338       1.75723587
S        1.33610875      20.98940610      20.52666091      -1.63124048      -1.24527786      -0.66520106
P       19.02423477      15.14167234       2.28005957      -0.27056115      -0.09141492       0.17217993
S       17.70709217      16.59251815       1.21041978      -0.74992843      -1.06495895       0.37153161
S       21.00167991      15.20087388       1.50387969       1.23534030       0.35279881       1.39027639
S       19.19371994      15.46845591       4.30224824      -0.45038392      -0.63036067       0.74554540
S       18.02030700      13.33275261       1.98870871      -0.32641058      -0.73459470       1.02722255
P       13.57092615      19.51855173      19.96843882      -0.16929598      -0.39088776      -0.05411405
S       15.19846856      20.74176615      20.09408629      -0.88244973       0.90287021       1.92289612
S       12.45903425      19.82831279      18.23006753      -0.19175545      -0.35419271      -0.18417340
S       14.14039619      17.49151193      20.03231495       0.35838786      -0.24794303       0.31797474
S       12.39214127      20.02923712      21.52259228       0.24380068      -0.06570994       0.01048192
P       18.84970325      15.15751397      19.95300751      -0.68322239       0.32654752      -0.38961758
S       16.81115978      15.05002219      19.56908879      -1.22526228       0.98776876       0.37574310
S       20.48419766      14.09174703      18.59985028       2.74467703      -0.80007329      -0.37424086
S       19.68708913      16.99332112      20.39802732       1.02199203      -1.29181011       1.83693536
S       19.37291834      14.70282372      21.82710227      -0.36117200       0.44233510       0.09061813
P       13.54315402      11.11726136      19.89008578      -0.16849030       0.91735871       0.24143443
S       11.53400126      11.24573506      20.21052534      -0.42026097       0.27560253      -0.36067479
S       13.91675627      10.50077760      17.92103988       0.20733615       1.66571286       0.15379118
S       14.74611099      12.62601795      20.45937423      -0.66246956       0.90240856       0.14931973
S       14.02393023       9.43491987      21.24297171      -1.62160085       0.68693837       0.44091329
P       19.06833738      19.83559378      19.89103417       0.86390075       0.92810037      -0.16511018
S       20.34875582      21.07796603      19.13157932       1.70599609       0.51830958       0.46984991
S       19.50294559      18.10444583      18.79850613       0.71732713       1.34813617       0.68398642
S       19.22186094      19.30800550      21.84773394      -0.16167833      -0.54942631      -0.47552678
S       17.04626973      19.85155610      19.62206328       0.56333342      -1.09656094      -0.10576497
P       13.64446371       1.86143366       2.33678346      -0.80730267      -0.52011881      -0.04847117
S       13.53758848       3.83345527       3.56436060       0.28475737       0.46437514      -0.01784476
S       12.92841877       2.59567500       0.32468915      -0.86037063      -1.58102143      -0.27026841
S       15.44193287       1.21951246       2.59105213      -0.58351379       0.01568357       0.96827543
S       12.05751845       0.76770614       2.80857061      -0.26636380      -1.21207037      -0.75743881
P       13.51592363      19.22552981       6.82468197      -0.57218336      -0.62804881       0.31619091
S       14.18438532      21.27822039       6.72198624       1.15269908      -0.80182614       2.26532920
S       12.90020063      18.41031953       4.89601780      -0.72218846      -1.56517516       0.93598369
S       15.38447854      18.62685928       7.38078053      -0.53529077      -0.52432780       0.38387603
S       12.01659724      19.33679508       8.11782646      -0.56080059      -0.37196665       0.33816553
P       18.95866065      19.60903991       6.79415490      -0.49665031      -0.25478789       0.39640086
S       19.44231983      18.71191769       4.87900087       0.10254027      -0.75074185       2.34827202
S       18.03552159      17.97196732       7.63317240       0.82224919      -0.70092264       1.40278395
S       20.61154001      20.10082110       7.81298176      -1.38196074       1.09103350       1.51681874
S       17.79906458      21.21781456       6.53710428       0.06980701      -0.63635708       0.02628481
P        2.67529253       2.32238730      19.72672318      -0.42032121       0.23725485      -0.80977697
S        2.32961629       1.46044052      17.95539524       0.00710057       0.23744040      -0.90995461
S        1.36696007       3.71845905      20.37124982       0.52852477       1.13075400       0.01464865
S        2.44808734       0.65725172      21.19522659      -0.03605574       0.56870037      -0.23438622
S        4.56620601       2.92122077      20.02758329      -1.14778227      -0.54159067       0.47623097
P        2.77442437      19.42027119       6.50389857       0.87042942      -0.51534235      -0.82024008
S        2.70052090      20.26419700       4.65833133       0.05849738      -0.62068420      -0.67790493
S        0.82941314      19.39075351       7.19860173       0.41851300      -1.53493608      -1.51048718
S        3.59985449      17.53995936       6.58918058       0.55656973      -0.91387709       0.07401129
S        3.94011777      20.70136928       7.79169052       0.84205897       0.08184629      -0.98047476
P        8.16505395       6.49689462      10.97043868       0.18842526      -0.55436448      -1.07967750
S        7.94901699       5.33916604       9.25637914      -1.38482241      -2.21012878       0.31742292
S        9.21962428       5.06827029      12.10772707       0.42180765      -0.13641968      -0.36456360
S        9.18251592       8.37096743      11.23352857       0.45849669      -0.18066640      -0.26965588
S        6.14550097       6.68702603      11.56886512      -0.47627440       0.41574536      -1.31809369
P       13.65678733      19.50376429      15.41867424       0.41892626      -0.23857543      -0.54996640
S       14.87393744      20.03863415      13.87213239      -0.07532478      -0.96706913      -1.27332444
S       11.79108354      19.75968247      14.65346995       0.92344871       0.02233472      -1.49035264
S       13.91141686      17.50377717      16.10179015      -0.34569241      -0.32642616       0.28234443
S       14.03086858      20.82626334      16.97779004       0.39805173      -0.12422708      -1.11118367
P       19.04057273      10.86252716      11.14735761      -0.03840510      -0.08730460       0.42825398
S       19.54755835      12.88636725      11.38147253       0.01181592       0.01552122       0.38814208
S       17.91404730      10.66157471       9.40090878      -0.44342139      -1.15342834       0.97287873
S       20.65943805       9.58746499      11.23304245       0.02461548       0.06037942       1.14532240
S       17.74173655      10.34109078      12.63999956       1.04456160       0.21110619       1.09809253
P       13.52003697       6.41766665      19.98406916       0.09071256      -0.06342722       0.92451758
S       13.96097291       6.58261093      18.07025734       0.48825068      -0.15831138       0.72372283
S       14.15129010       4.68970517      20.83433672       0.12611600       0.79895246       1.64384117
S       15.12064356       7.72074686      20.77589239       2.14228179      -0.76997534      -0.65539735
S       11.55989271       6.79785666      20.30605817      -0.21332644      -0.16272278      -0.65389674
P        8.25293847      19.46163487      10.71201343       0.19410290      -0.51715669      -0.78610784
S        7.27121376      20.96779345       9.78611308      -0.04664055      -0.35656900      -0.85697028
S        7.38832596      17.59413652      10.55993712       0.24660353      -0.57414509      -0.58705518
S       10.29262990      19.44460433      10.84907520      -0.12886484      -0.00056740      -0.46731239
S        7.22385021      20.41102708      12.35089344      -1.22102523       0.36371760      -2.26254821
P       19.16400347      19.71946280      15.42090464       0.64726325       0.29345356      -0.84526142
S       17.21637207      18.59224865      15.55819711      -0.36704199       1.01915109       1.18312133
S       18.92501652      20.75119720      13.74044659       0.18624805      -0.37982452      -0.84085296
S       18.85274341      20.74573441      17.09885632       0.46781187       0.35836820      -1.13375364
S       20.89718898      18.65507850      15.39057598       1.05628293       0.94124622      -1.16723398
P       19.00988460      10.70747043      19.91972802       0.08551646      -1.20326588       0.07095867
S       17.73599293      12.24364624      19.44751294      -0.38563317      -1.93879382       0.67648383
S       19.96630580      10.11672787      18.20327714       0.50634748       0.16137446       0.07498402
S       20.63490289      11.07841203      21.34561781       0.25681661      -2.25849981      -0.57121490
S       17.75049938       9.36079529      20.75451817       0.00745721      -1.08880627      -0.10111520
P        8.19610106      19.38369464      20.12929989       0.51576250      -0.71488959       1.08652238
S        6.16680172      19.32365966      19.44560632      -0.53250830      -2.11173635       0.68479063
S        9.25843739      17.99526010      18.97564282      -0.22550954      -0.81690008       1.53510716
S        8.80715515      21.24826064      19.25785450      -1.68849457      -0.61325339      -1.36404782
S        8.30469319      19.11485924      22.05452190       0.17502776       0.06487455       1.10536582
P       13.59521591      15.35959221      11.07982709      -0.23196298       0.05698831      -0.21376617
S       12.68299971      16.68105695       9.83970662       0.08290537       0.62831547       0.17422877
S       15.55451066      14.71029816      10.24301595       1.48160615       1.32950971       0.06300637
S       13.86670922      16.06203561      13.00223388      -0.89260293      -0.27722324      -0.37480305
S       12.06203371      13.68914716      11.35061997      -1.75780636       0.57940449       0.55904329
P       19.12156473       2.23870826       2.29370246       0.51910780       0.92225048       0.48759832
S       20.52285242       3.45621591       2.97249905       1.26197503      -0.06654854       0.24688521
S       18.38830810       2.92841425       0.48308730       0.42161670       0.66245202       0.79361489
S       19.89605909       0.38695846       2.03707586       0.82511301       1.27528558      -0.45070100
S       17.47841021       2.12468582       3.59183360       1.19420681       0.15057556       1.34661363
P        2.73143204       6.51395547       2.21931765       0.34326055      -0.24978259       0.14195109
S        1.37243087       7.65699317       1.11592165       0.87860933       0.64727806      -0.51456080
S        4.28869718       6.07061953       1.00913675       0.37116206       0.11833831       0.02013750
S        3.47938589       7.58303380       3.85698884       0.16620486      -0.27796207       0.10995674
S        1.89891624       4.80621505       2.93853875       0.22373988      -0.12467544       0.33570494
P        8.15535918       2.09571482       6.85321232      -0.63902588      -0.12912437       0.97400201
S        6.20301210       3.10837369       6.91056309      -1.74637130      -1.55336232       0.93472780
S        7.71987699       0.92096452       5.25888762      -0.69707801      -0.81702670       1.74739756
S        9.78687973       3.20186545       6.17125606      -1.27542858      -0.02875688      -1.15981808
S        8.40265588       1.11835966       8.52134369       0.76213199       0.17046873       0.99321551
P       19.02483704      19.68660520       2.16732155       0.65510038       0.61243023      -0.20329614
S       17.19725679      20.31610768       1.63850934      -0.14555086      -0.39958245       0.92600372
S       20.81285681      19.81238320       0.98794882       1.74507273      -0.35067751      -0.18848749
S       19.74275138      20.56948456       3.97532186       0.38430729       0.63185639      -0.17612351
S       18.66264626      17.70680599       2.71715226       0.08538567       0.65270865       0.72133390
P       19.02026293       6.54641279       2.22931534      -0.21738009       0.21918144       0.15823112
S       18.51572125       5.77699930       0.36780007       0.04825857       0.78930602       0.24592305
S       17.81601676       8.20374510       2.62905293       0.71564112       0.84150172       0.19426360
S       18.63032005       5.19589607       3.78078327      -0.77426088       1.17532072       0.66051800
S       20.95809445       7.18468896       2.22607022      -0.18991472      -0.05844170       0.17597088
P        8.05067885       6.42597102      15.48284221      -0.89956653      -0.34563271       0.22835743
S        8.89437803       8.47707204      14.92430033       0.49323377       0.97857600       0.94577476
S        6.60132492       5.63647855      14.35909131      -1.11300833      -0.96787886       0.73716242
S        9.59553861       5.05640358      15.62402601      -1.30936838      -1.39919973      -0.70733190
S        7.18767747       6.92597426      17.25129492      -1.28795963       1.74414812      -1.11267544
P       13.50812609       1.96217423      15.36674741      -0.44085709      -1.10899958      -0.98083423
S       12.78215409       2.61056177      13.53173564       0.12025112      -1.64177271      -1.46128063
S       15.20222002       0.97876353      15.01306106       0.76213909       1.23226528      -0.82163210
S       14.26384346       3.41264876      16.74157681      -0.21708868      -1.72957249      -0.60021331
S       12.06696295       1.29530513      16.59964700      -0.34977966      -0.12208312      -0.99535313
P       13.50703281       2.08741717      19.73553176       0.62977481      -0.29520989      -0.25504665
S       13.95833306       3.93255829      18.76921074       0.13883846      -0.34952052       0.29387910
S       14.76421941       0.74755048      18.96206683       0.48108836       0.28024005      -1.81009203
S       14.63477841       2.19819064      21.75639747       1.47276403      -1.92255690       0.29675695
S       11.56496755       1.71262132      19.77977453       0.64451491      -0.10023220      -0.24736330
P        2.68374615      10.85093117       6.64179818      -0.33045479       0.01192594       0.13179647
S        1.94377988      10.65708373       4.74334674       0.27118558       0.22988465      -0.22009700
S        1.43706553      10.16113685       8.07164354       0.18681393      -0.15995750       0.39109334
S        4.47037237       9.76412030       6.77800807      -0.72580400      -0.39050792      -0.06346272
S        3.10561223      12.90817883       6.99451028      -0.35354187       0.41840514       0.17730540
P       19.06833540       2.18281061      19.86425048      -0.28166536       0.35673117      -0.63911093
S       18.49020337       1.53270938      17.99992199      -0.27561748       1.00400647      -0.38401767
S       18.32795012       0.81123303      21.19198323      -0.00212971      -0.46992013      -1.56236634
S       21.01303218       2.44505186      20.11632436      -0.35887200      -0.00147725      -0.07231145
S       18.06963722       4.11168558      20.11148143       0.71304597       1.19190715      -0.82937501
P        2.71676509      19.27979956      11.23099178      -0.52310676      -0.78773410       1.16485930
S        4.04933450      19.65096464       9.64356218       0.19075371      -1.36949072       1.44496915
S        1.07328355      18.29286337      10.55102917      -0.40189134      -0.84656584       0.57584051
S        3.82850986      18.62819658      12.77797693      -0.27914488      -0.47891692       0.80254095
S        1.84833922      21.17367958      12.10498759      -0.25752556      -0.86412912       1.08703277
P        8.11323323       6.75813430       6.38110541      -0.27526010       1.44263180      -0.88780769
S        6.49569098       7.74066599       5.74189838      -0.93782694      -0.01149984      -0.62129167
S        9.94340798       6.82016624       5.47248475      -0.64680908       1.14935248      -1.14456836
S        8.54221695       7.28462662       8.52329950      -0.41739881       0.12210495      -0.46533238
S        7.44879507       4.84599658       6.31298418      -1.06519792       1.74835767       0.06891656
P       13.64769299       6.56659039       6.74361502       0.50170689      -0.21153939       0.60739979
S       11.83539527       5.78512518       7.45861708       1.02416837       1.17922005       1.13955047
S       13.31532845       6.93843099       4.82089648       0.20416373       0.45925941       1.10082732
S       13.99401126       8.30289828       7.67428422       0.49378600      -0.12257264      -0.54284671
S       15.36847112       5.43699115       6.99395545       1.67184539       1.67566660       1.15777956
P       19.01420412      10.89729416       6.58217731      -0.17491084      -0.03512800      -0.35747169
S       19.47326981      11.67255373       4.76313799      -0.57603582      -0.69394209      -0.19881153
S       19.71500225       8.89408183       6.57419684      -0.58590351      -0.38318239      -0.40232797
S       19.87009598      12.12182131       8.04096747       0.50031968       0.84031130      -1.48806859
S       16.94900076      10.78750820       6.75494473      -0.35026610       0.02339671      -0.82510233
P       13.58757756       6.83862040       2.28879124      -0.41553892       0.74397288       0.62352856
S       11.70125365       7.39942904       3.07774655      -1.80521938       0.49435595      -1.37781778
S       13.28741803       7.01021098       0.37016089      -1.24420202       0.94486033       0.49313214
S       15.49443315       7.31506476       2.87027265       0.27924123       0.76200750      -0.93033631
S       13.61676308       4.75696611       1.81040567      -0.30258838       1.27610753      -2.27519265
P       19.08098113       6.49838871      15.47004678       0.69546816       0.11148881      -0.22370754
S       19.53608874       6.53886793      13.49863963       0.15987565       0.07302820      -0.22545613
S       17.20165824       5.59480705      15.71226800       0.86577577      -0.08001438      -0.28687704
S       20.40622304       5.44309203      16.65370682       0.17543060      -0.10563294       0.09914676
S       18.88432621       8.46594586      16.18673812      -0.41594150      -0.24947090      -0.26911420
P        8.15429891      15.23172149       2.24620572      -0.27268946       0.06581604       0.27364676
S        9.53557563      15.24514851       0.67528586      -0.52978973      -1.37111030       0.34885991
S        6.66604413      13.85573215       1.79506915      -0.54562533      -0.07854406       1.53912294
S        9.07049689      14.70183386       3.99831283       0.39232137       0.29544789       0.14860912
S        7.30188881      17.07656148       2.48152205      -0.08528670       0.26402913       0.06730033
P       19.00385820       2.19949328      11.07059190      -0.53585433       0.14867199      -0.21143605
S       17.55780456       3.64317309      10.48902225      -0.43923005       0.57285212       0.06298936
S       19.20231374       0.83301309       9.55699515      -0.29366667       0.00266273      -0.07331356
S       20.77028506       3.11450087      11.52439276      -0.65787945       0.33147064       0.57896850
S       18.26628810       1.26619751      12.78260869      -0.85477507       1.23922510      -0.02123431
P        8.13830242      10.99076533       6.61558755       0.05142788       1.24488818      -0.24846337
S        9.99831596      11.92483347       6.79353051       0.65993829       0.13595470       0.02948918
S        7.38837948      11.05947713       4.69017476       0.43158829      -0.04392649      -0.28573235
S        8.75748121       9.12767877       7.19502113       1.50268287       2.07881795       0.19283861
S        6.82814270      11.63660490       8.09302188       0.65576815       0.55091298       0.78952629
P        8.09226343       6.61587505      20.03278911      -0.66780286       0.82685351       0.25995327
S        8.22700053       8.61386465      19.72770792       0.43608511       0.79079947      -0.02540412
S        8.91375590       5.65537467      18.29419356      -0.01278707      -0.76388567       1.46372486
S        9.19610169       6.03177562      21.61404013      -1.67801282       1.11119369       0.63740618
S        6.17442228       6.01586664      20.21879795      -0.68532017       1.93362787       0.54437878
Na      16.06185161      16.17317769       3.62864257       0.00627484      -0.55214705      -1.93269323
Na      11.61070011       3.99636883      17.38023868       0.00855002       0.45680329       0.30819261
Na      13.45854484      12.57759491      14.86007244      -0.78545325      -0.20646684      -0.12089393
Na      15.42178342       5.16502326       4.15628232       1.61635160       1.07963597       0.67605864
Na       6.18977070       8.84019721       8.88396161       0.36873652       0.16232846      -0.05952210
Na      16.91464600      18.19422660      11.42356562      -0.44571134       0.08691973       0.36579572
Na       1.38916914      20.57325726       9.22038101      -1.12045660      -0.05406266      -0.44148748
Na       4.42555602      19.69345858      15.64520251      -0.12096907       0.13923837       0.25207934
Na       8.90593128       4.98089878       3.93941386      -0.08391854       1.12623342      -0.35442303
Na      19.03348898       6.91646912      19.05639213       1.19077022       0.20580491      -0.40265303
Na      12.30125158       7.02752639      10.59889288       0.24453114       0.34081798       0.41013275
Na       5.40398371      14.98045289       4.99725802      -0.15915256       0.35431933      -0.95650000
Na       3.65271786      10.16171063      15.09904090      -0.07881920       0.10190742      -0.16498814
Na       6.68679280       3.85247621      10.80973841      -0.55775160      -0.60371244       0.83810916
Na      17.20115771      16.89208962      17.77602624      -0.46598606      -0.17354561      -0.10409046
Na      11.43222050      16.41528482      14.59903660       1.10444326      -1.26314277       0.53784049
Na       6.72301281      13.65535902      21.60380082      -0.40884167       0.03048391      -0.47374589
Na      20.26049064      12.42306794      16.54023125      -0.01103226       0.18540419       0.71443440
Na      13.19950890      12.31656315       2.15415940      -0.16704177       0.62764363      -1.30416244
Na      16.71188548       7.26572532      10.25506979       0.06734556       0.65452780      -0.17382121
Na       6.06163393      18.65552907       7.99383668      -0.60393140       0.26114167       0.52633158
Na      18.83993719       2.95245904      15.34861358      -0.22854614       0.42846991      -0.02710354
Na       3.25277395       0.46062591       6.11021881      -0.14389544       2.19317502      -0.84388487
Na       9.16302501      20.95432848       4.84541989       0.35366186      -2.46776802      -0.94659499
Na      13.06787806      13.71724694       7.31376447      -0.53258672      -0.25620792       1.34545615
Na      11.72655947       9.45325280      14.93963500       0.33749380       0.14041671      -0.61771726
Na       4.66886275      10.34297206       0.71314392      -0.04195170      -0.40735834      -0.07729116
Na       8.42991845      12.32256813      11.69673832       0.65026983       0.10252373       0.18552834
Na      11.59205099      17.97474440      19.91644398       0.42500277      -1.18635953       0.22063275
Na       4.47432080       5.68565368       6.06204347       0.15783570       0.83918568      -0.05169993
Na      12.19786185       2.42721050       4.68774945      -1.60364903       0.35273550       0.08583532
Na      16.53487135      11.01739092       3.44656861       1.08807024       0.41803375       0.48710346