160
Properties=species:S:1:pos:R:3:hirshfeld:R:1:forces:R:3 dipole_vector="0.5559490720720438 -19.86483455725803 -8.473068602153039e-07" energy=-4093320.65194743 pbc="F F F"
O        0.92381967       5.85530027      -6.49900000      -0.34168747      -1.07696000      -1.17583000       0.52143300
Zn      -0.95228033       5.04823027      -6.49900000       0.38854826       1.42735000       2.15045000       1.58733000
O       -0.95228033       3.25185027      -6.49900000      -0.39252398       0.54072800      -1.90541000      -0.16629100
Zn       0.92381967       2.44478027      -6.49900000       0.40344283      -1.27357000       1.54732000       0.89584300
O        0.92381967       0.64840027      -6.49900000      -0.39991331      -0.58434200      -1.71431000      -0.09727290
Zn      -0.95228033      -0.15866973      -6.49900000       0.40309055       1.29182000       1.52502000       0.84937800
O       -0.95228033      -1.95504973      -6.49900000      -0.39758155       0.63560400      -1.76419000      -0.04758280
Zn       0.92381967      -2.76211973      -6.49900000       0.41134831      -1.30829000       1.74133000       0.81543600
O        0.92381967      -4.55849973      -6.49900000      -0.38776567      -0.45930400      -2.53035000       0.29130800
Zn      -0.95228033      -5.36556973      -6.49900000       0.28844374       0.53968800       0.58019200       0.42110000
O       -1.89032933       5.85530127      -4.87425000      -0.33417294      -0.59689700      -1.08135000      -0.96578100
Zn      -3.76642933       5.04823127      -4.87425000       0.39002711       0.70115700       2.14747000       2.02347000
O       -3.76642933       3.25185127      -4.87425000      -0.39228735      -0.43606600      -1.90394000       0.40177500
Zn      -1.89032933       2.44478127      -4.87425000       0.31900627      -0.28474100       3.06662000      -0.50082600
O       -1.89032933       0.64840127      -4.87425000      -0.31711585      -0.40919000      -2.50428000      -0.70630600
Zn      -3.76642933      -0.15866873      -4.87425000       0.40242031       0.08369340       1.55050000       1.54447000
O       -3.76642933      -1.95504873      -4.87425000      -0.39676742      -0.37802800      -1.78345000       0.56438200
Zn      -1.89032933      -2.76211873      -4.87425000       0.31290504      -0.37414800       3.01315000      -0.68057000
O       -1.89032933      -4.55849873      -4.87425000      -0.31971180       0.05368410      -2.98037000       0.07816720
Zn      -3.76642933      -5.36556873      -4.87425000       0.28555255       0.11064900       0.54900000       0.66673800
O       -4.70447933       5.85530127      -3.24950000      -0.33962897       1.00696000      -1.17360000      -0.65168000
Zn      -4.70447933       2.44478127      -3.24950000       0.40431514       1.39620000       1.52023000      -0.67762300
O       -4.70447933       0.64840127      -3.24950000      -0.40058759       0.21178800      -1.72705000      -0.60189800
Zn      -4.70447933      -2.76211873      -3.24950000       0.41236201       1.34957000       1.70632000      -0.81619200
O       -4.70447933      -4.55849873      -3.24950000      -0.38847543       0.45909500      -2.49398000      -0.20651200
O        3.73796867       5.85530127      -4.87425000      -0.34180536       0.09223350      -1.19670000       1.18358000
Zn       1.86186967       5.04823127      -4.87425000       0.32725986       0.25710800       4.36807000      -0.43785100
O        1.86186967       3.25185127      -4.87425000      -0.31299325       0.42999500      -2.66226000      -0.74208600
Zn       3.73796867       2.44478127      -4.87425000       0.40324233      -0.14095200       1.54086000       1.54478000
O        3.73796867       0.64840127      -4.87425000      -0.39942222       0.37150100      -1.70230000       0.46679000
Zn       1.86186967      -0.15866873      -4.87425000       0.31544757       0.33701400       3.02248000      -0.58293800
O        1.86186967      -1.95504873      -4.87425000      -0.31881385       0.32901000      -2.64763000      -0.64399100
Zn       3.73796867      -2.76211873      -4.87425000       0.40499925       0.01370960       1.70682000       1.53744000
O        3.73796867      -4.55849873      -4.87425000      -0.38786196      -0.05577870      -2.43009000       0.47767500
Zn       1.86186967      -5.36556873      -4.87425000       0.34957867       0.54082600       1.48729000      -0.70576200
O        0.92381967       5.85530127      -3.24950000      -0.29358068      -0.07041840      -1.43010000       0.10209700
Zn      -0.95228033       5.04823127      -3.24950000       0.34143060       0.04873160       3.85871000       0.03722960
O       -0.95228033       3.25185127      -3.24950000      -0.32436583       0.05541440      -2.82790000       0.13595400
Zn       0.92381967       2.44478127      -3.24950000       0.34001890      -0.08577820       2.56509000       0.16160800
O        0.92381967       0.64840127      -3.24950000      -0.32963596      -0.08792870      -2.55420000       0.17530900
Zn      -0.95228033      -0.15866873      -3.24950000       0.33704355       0.06288260       2.53323000       0.11507800
O       -0.95228033      -1.95504873      -3.24950000      -0.33339263       0.11937100      -2.61608000       0.27498600
Zn       0.92381967      -2.76211873      -3.24950000       0.34019208      -0.01380430       2.82119000       0.08816630
O        0.92381967      -4.55849873      -3.24950000      -0.32452589      -0.15739400      -3.33590000       0.13623400
Zn      -0.95228033      -5.36556873      -3.24950000       0.29823248      -0.07485880       0.83406200       0.02541490
O       -1.89033033       5.85530127      -1.62475000      -0.29185701       0.00574944      -1.44472000       0.01701460
Zn      -3.76643033       5.04823127      -1.62475000       0.32501646      -0.49682700       4.45670000      -0.05834970
O       -3.76643033       3.25185127      -1.62475000      -0.31328422      -0.86738500      -2.69572000       0.15314900
Zn      -1.89033033       2.44478127      -1.62475000       0.33896149       0.20836200       2.53403000      -0.02073410
O       -1.89033033       0.64840127      -1.62475000      -0.33049549       0.20783300      -2.58923000      -0.04523390
Zn      -3.76643033      -0.15866873      -1.62475000       0.30981221      -0.72279600       3.21153000       0.04986130
O       -3.76643033      -1.95504873      -1.62475000      -0.31674511      -0.80603900      -2.70217000       0.22693500
Zn      -1.89033033      -2.76211873      -1.62475000       0.33683361       0.14322700       2.71364000      -0.10582200
O       -1.89033033      -4.55849873      -1.62475000      -0.32672540       0.15292700      -3.11330000      -0.05277730
Zn      -3.76643033      -5.36556873      -1.62475000       0.34647998      -0.76766400       1.49801000       0.05983420
O       -4.70447933       5.85530127      -0.00000000      -0.30379419       1.20766000      -1.40765000       0.00000155
Zn      -4.70447933       2.44478127      -0.00000000       0.41411510       1.24335000       1.12666000      -0.00000128
O       -4.70447933       0.64840127      -0.00000000      -0.40599743       0.26045300      -1.68512000       0.00000100
Zn      -4.70447933      -2.76211873      -0.00000000       0.42194621       1.18758000       1.36749000      -0.00000044
O       -4.70447933      -4.55849873      -0.00000000      -0.39298451       0.58514200      -2.44126000       0.00000031
Zn       4.67601867       5.04823127      -3.24950000       0.38974694      -2.12319000       2.14237000      -0.40970100
O        4.67601867       3.25185127      -3.24950000      -0.39014314      -0.11830200      -1.86320000      -0.59323500
Zn       4.67601867      -0.15866873      -3.24950000       0.40383591      -1.36164000       1.45195000      -0.70821200
O        4.67601867      -1.95504873      -3.24950000      -0.39832067      -0.28256200      -1.73193000      -0.64746600
Zn       4.67601867      -5.36556873      -3.24949900       0.27439748      -0.74483000       0.47179600      -0.43093400
O        3.73796967       5.85530127      -1.62475000      -0.33686448       1.12681000      -1.05854000       0.04458230
Zn       1.86186967       5.04823127      -1.62475000       0.34356607      -0.06436530       3.82883000      -0.01085950
O        1.86186967       3.25185127      -1.62475000      -0.32304008      -0.15211600      -2.79146000      -0.05127630
Zn       3.73796967       2.44478127      -1.62475000       0.31552499       0.63613100       3.18268000       0.08244800
O        3.73796967       0.64840127      -1.62475000      -0.31691444       0.79476200      -2.47594000       0.15489500
Zn       1.86186967      -0.15866873      -1.62475000       0.33771009      -0.13298000       2.45638000      -0.04862620
O        1.86186967      -1.95504873      -1.62475000      -0.33406490      -0.34009400      -2.60387000      -0.05867270
Zn       3.73796967      -2.76211873      -1.62475000       0.30914749       0.85432500       3.15430000       0.10522900
O        3.73796967      -4.55849873      -1.62475000      -0.31925962       0.05100760      -3.04482000       0.18995000
Zn       1.86186967      -5.36556873      -1.62475000       0.28469023       0.01029530       0.66747800      -0.05661600
O        0.92381967       5.85530127      -0.00000000      -0.29428718      -0.08914580      -1.43273000       0.00000371
Zn      -0.95228033       5.04823127      -0.00000000       0.33363775       0.00072728       4.06861000      -0.00000288
O       -0.95228033       3.25185127      -0.00000000      -0.32649306      -0.12367900      -2.90142000       0.00000323
Zn       0.92381967       2.44478127      -0.00000000       0.33349120       0.01758380       2.72637000      -0.00000245
O        0.92381967       0.64840127      -0.00000000      -0.33013070       0.09968730      -2.60827000       0.00000233
Zn      -0.95228033      -0.15866873      -0.00000000       0.33091543      -0.04814170       2.70163000      -0.00000112
O       -0.95228033      -1.95504873      -0.00000000      -0.33315769      -0.13185400      -2.69478000       0.00000104
Zn       0.92381967      -2.76211873      -0.00000000       0.33020810       0.15405900       2.87075000      -0.00000070
O        0.92381967      -4.55849873      -0.00000000      -0.33102856       0.04366400      -3.07787000       0.00000069
Zn      -0.95228033      -5.36556873      -0.00000000       0.22542881      -0.02973940       0.16404600      -0.00000028
O       -1.89033033       5.85530127       1.62475000      -0.29185701       0.00575030      -1.44472000      -0.01701050
Zn      -3.76643033       5.04823127       1.62475000       0.32501646      -0.49682700       4.45670000       0.05834580
O       -3.76643033       3.25185127       1.62475000      -0.31328422      -0.86738400      -2.69571000      -0.15314600
Zn      -1.89033033       2.44478127       1.62475000       0.33896149       0.20836100       2.53403000       0.02073180
O       -1.89033033       0.64840127       1.62475000      -0.33049549       0.20783400      -2.58923000       0.04523590
Zn      -3.76643033      -0.15866873       1.62475000       0.30981221      -0.72279600       3.21153000      -0.04986250
O       -3.76643033      -1.95504873       1.62475000      -0.31674511      -0.80603800      -2.70217000      -0.22693400
Zn      -1.89033033      -2.76211873       1.62475000       0.33683361       0.14322700       2.71364000       0.10582100
O       -1.89033033      -4.55849873       1.62475000      -0.32672540       0.15292700      -3.11330000       0.05277790
Zn      -3.76643033      -5.36556873       1.62475000       0.34647998      -0.76766400       1.49801000      -0.05983460
O       -4.70447933       5.85530127       3.24950000      -0.33962898       1.00696000      -1.17360000       0.65168100
Zn      -4.70447933       2.44478127       3.24950000       0.40431514       1.39620000       1.52023000       0.67762200
O       -4.70447933       0.64840127       3.24950000      -0.40058759       0.21178900      -1.72705000       0.60189900
Zn      -4.70447933      -2.76211873       3.24950000       0.41236201       1.34957000       1.70632000       0.81619200
O       -4.70447933      -4.55849873       3.24950000      -0.38847543       0.45909500      -2.49398000       0.20651300
Zn       4.67601867       5.04823127      -0.00000000       0.38847509      -1.99092000       1.80303000      -0.00000398
O        4.67601867       3.25185127      -0.00000000      -0.39502759      -0.17237700      -1.90934000       0.00000395
Zn       4.67601867      -0.15866873      -0.00000000       0.41257449      -1.20208000       1.00958000      -0.00000146
O        4.67601867      -1.95504873      -0.00000000      -0.40628011      -0.31771500      -1.56198000       0.00000099
Zn       4.67601867      -5.36556873      -0.00000000       0.26281737      -0.35014900       0.26274600      -0.00000026
O        3.73796967       5.85530127       1.62475000      -0.33686449       1.12681000      -1.05854000      -0.04457480
Zn       1.86186967       5.04823127       1.62475000       0.34356608      -0.06436580       3.82883000       0.01085300
O        1.86186967       3.25185127       1.62475000      -0.32304008      -0.15211500      -2.79146000       0.05128090
Zn       3.73796967       2.44478127       1.62475000       0.31552499       0.63613100       3.18268000      -0.08245160
O        3.73796967       0.64840127       1.62475000      -0.31691444       0.79476200      -2.47594000      -0.15489300
Zn       1.86186967      -0.15866873       1.62475000       0.33771009      -0.13298000       2.45638000       0.04862460
O        1.86186967      -1.95504873       1.62475000      -0.33406490      -0.34009400      -2.60387000       0.05867400
Zn       3.73796967      -2.76211873       1.62475000       0.30914749       0.85432500       3.15430000      -0.10523000
O        3.73796967      -4.55849873       1.62475000      -0.31925962       0.05100760      -3.04482000      -0.18994900
Zn       1.86186967      -5.36556873       1.62475000       0.28469023       0.01029540       0.66747800       0.05661550
O        0.92381967       5.85530127       3.24950000      -0.29358069      -0.07041620      -1.43010000      -0.10209100
Zn      -0.95228033       5.04823127       3.24950000       0.34143061       0.04872920       3.85870000      -0.03723390
O       -0.95228033       3.25185127       3.24950000      -0.32436582       0.05541580      -2.82790000      -0.13595100
Zn       0.92381967       2.44478127       3.24950000       0.34001890      -0.08577900       2.56509000      -0.16161100
O        0.92381967       0.64840127       3.24950000      -0.32963596      -0.08792840      -2.55420000      -0.17530800
Zn      -0.95228033      -0.15866873       3.24950000       0.33704355       0.06288210       2.53323000      -0.11507900
O       -0.95228033      -1.95504873       3.24950000      -0.33339263       0.11937200      -2.61608000      -0.27498500
Zn       0.92381967      -2.76211873       3.24950000       0.34019208      -0.01380440       2.82119000      -0.08816710
O        0.92381967      -4.55849873       3.24950000      -0.32452589      -0.15739400      -3.33590000      -0.13623300
Zn      -0.95228033      -5.36556873       3.24950000       0.29823248      -0.07485890       0.83406200      -0.02541530
O       -1.89032933       5.85530127       4.87425000      -0.33417294      -0.59689300      -1.08135000       0.96578200
Zn      -3.76642933       5.04823127       4.87425000       0.39002712       0.70115500       2.14747000      -2.02347000
O       -3.76642933       3.25185127       4.87425000      -0.39228735      -0.43606400      -1.90394000      -0.40177400
Zn      -1.89032933       2.44478127       4.87425000       0.31900627      -0.28474300       3.06662000       0.50082500
O       -1.89032933       0.64840127       4.87425000      -0.31711585      -0.40918900      -2.50428000       0.70630700
Zn      -3.76642933      -0.15866873       4.87425000       0.40242031       0.08369230       1.55050000      -1.54447000
O       -3.76642933      -1.95504873       4.87425000      -0.39676742      -0.37802800      -1.78345000      -0.56438200
Zn      -1.89032933      -2.76211873       4.87425000       0.31290504      -0.37414800       3.01315000       0.68056900
O       -1.89032933      -4.55849873       4.87425000      -0.31971180       0.05368430      -2.98037000      -0.07816690
Zn      -3.76642933      -5.36556873       4.87425000       0.28555255       0.11064900       0.54900000      -0.66673800
Zn       4.67601867       5.04823127       3.24950000       0.38974696      -2.12318000       2.14237000       0.40969400
O        4.67601867       3.25185127       3.24950000      -0.39014315      -0.11830400      -1.86319000       0.59323800
Zn       4.67601867      -0.15866873       3.24950000       0.40383592      -1.36164000       1.45194000       0.70821100
O        4.67601867      -1.95504873       3.24950000      -0.39832067      -0.28256200      -1.73193000       0.64746700
Zn       4.67601867      -5.36556873       3.24949900       0.27439748      -0.74483000       0.47179600       0.43093400
O        3.73796867       5.85530127       4.87425000      -0.34180539       0.09222970      -1.19669000      -1.18358000
Zn       1.86186967       5.04823127       4.87425000       0.32725989       0.25710600       4.36807000       0.43784500
O        1.86186967       3.25185127       4.87425000      -0.31299325       0.42999600      -2.66226000       0.74208700
Zn       3.73796867       2.44478127       4.87425000       0.40324234      -0.14095000       1.54086000      -1.54478000
O        3.73796867       0.64840127       4.87425000      -0.39942222       0.37150000      -1.70229000      -0.46678900
Zn       1.86186967      -0.15866873       4.87425000       0.31544757       0.33701400       3.02248000       0.58293700
O        1.86186967      -1.95504873       4.87425000      -0.31881385       0.32901000      -2.64763000       0.64399100
Zn       3.73796867      -2.76211873       4.87425000       0.40499925       0.01370990       1.70682000      -1.53744000
O        3.73796867      -4.55849873       4.87425000      -0.38786196      -0.05577890      -2.43009000      -0.47767400
Zn       1.86186967      -5.36556873       4.87425000       0.34957867       0.54082600       1.48729000       0.70576100
O        0.92381967       5.85530027       6.49900000      -0.34168750      -1.07696000      -1.17583000      -0.52143500
Zn      -0.95228033       5.04823027       6.49900000       0.38854828       1.42734000       2.15044000      -1.58733000
O       -0.95228033       3.25185027       6.49900000      -0.39252398       0.54073100      -1.90540000       0.16629000
Zn       0.92381967       2.44478027       6.49900000       0.40344284      -1.27357000       1.54732000      -0.89584200
O        0.92381967       0.64840027       6.49900000      -0.39991331      -0.58434200      -1.71431000       0.09727260
Zn      -0.95228033      -0.15866973       6.49900000       0.40309055       1.29182000       1.52502000      -0.84937800
O       -0.95228033      -1.95504973       6.49900000      -0.39758155       0.63560400      -1.76418000       0.04758300
Zn       0.92381967      -2.76211973       6.49900000       0.41134831      -1.30829000       1.74133000      -0.81543600
O        0.92381967      -4.55849973       6.49900000      -0.38776567      -0.45930400      -2.53035000      -0.29130800
Zn      -0.95228033      -5.36556973       6.49900000       0.28844374       0.53968800       0.58019100      -0.42110000
