228
Properties=species:S:1:pos:R:3:hirshfeld:R:1:forces:R:3 dipole_vector="-2.3394619549974288e-12 -1.9255708118581562e-12 2.0872192840713413e-11" energy=-5833054.99305987 pbc="F F F"
O        4.62706900       3.53433600       3.13485800      -0.37618135       0.01721370      -0.01049970       0.02164530
O        1.96711800       4.41471900       4.73356100      -0.34978847       0.00704334       0.12053300       0.09442530
Zn       2.98450500       4.47949800       3.05197300       0.38947938      -0.05463560      -0.10289300      -0.08788610
Zn      -2.69275700       4.99264800       3.19072700       0.38010909       0.03053300      -0.03752890       0.04445140
Zn       0.00937600       4.84484800       4.68044300       0.36571442       0.02053630      -0.08866570      -0.04908890
O       -0.87760800       5.58859900       3.11031100      -0.38260827       0.00704673       0.02228870      -0.03289490
O        5.94307400       0.96782500       4.76185500      -0.37821880      -0.07420640      -0.00249032      -0.04567110
O        4.49862500      -1.32736500       6.46713400      -0.34428327       0.08652770      -0.18356500       0.04032350
O        6.17129800       1.01109100       8.08522300      -0.39274478      -0.01546700       0.03196250       0.02996330
Zn       5.83023700       0.12603100       6.45984000       0.37926985      -0.07598350       0.13516500       0.08178950
Zn       1.98551500      -0.31789600       9.96008400       0.36509629       0.01430530      -0.01051950      -0.07680800
Zn       3.63065300      -1.83185900       8.17114300       0.37082903      -0.06731710       0.01297560       0.02709090
Zn       4.90241700       0.64316300       9.51635500       0.38701629      -0.10755800      -0.04983790      -0.09365970
O        3.86383300      -0.88088300       9.86375300      -0.38645937       0.02449710       0.04843240       0.03992430
Zn       5.23883200       2.76657500       4.77333800       0.38936036      -0.09987090      -0.08730410       0.02128700
Zn       2.92135800       3.88059700       6.43318700       0.36077840       0.06453860       0.00904484       0.00510714
Zn       5.38612800       2.81093600       7.95300600       0.38992818      -0.15663200      -0.13018800      -0.09103190
O        4.87185500       3.74033600       6.40436600      -0.37893945       0.05929890       0.04653210       0.04317350
O        1.37524500       1.53915800       9.94828000      -0.35925753      -0.11337600      -0.02165070       0.07648270
O        1.83052200       3.80611600       8.07575300      -0.36395083      -0.09990980       0.15279200       0.00155055
O        4.51228500       2.57071400       9.68916700      -0.39050116       0.04968820       0.05083170       0.02507940
Zn       2.68312700       2.94580500       9.60174800       0.39468754       0.10170200      -0.15255400      -0.15886700
Zn      -3.04796400      -4.90773000       3.33327900       0.38982017       0.02673690       0.07865150       0.01727650
Zn      -4.15974700      -2.44501000       4.84233500       0.35889343       0.02073980       0.05140820      -0.09229020
Zn      -4.89924000      -2.63393300       1.77750700       0.38812982       0.05109770       0.02417740       0.01344660
O       -4.49048500      -3.63790900       3.37436200      -0.38168028       0.01133490      -0.03341550      -0.01468950
O       -5.32006800       2.22508500       3.24957000      -0.37607006       0.00825427       0.02201960       0.03791530
O       -4.72824700      -0.51968100       4.86481200      -0.34729166      -0.11826400      -0.06680080       0.12524900
O       -5.49821200      -0.79673000       1.72112900      -0.37842469       0.05590360      -0.01818950       0.00279022
Zn      -5.41277100       0.31194300       3.24458200       0.38573059       0.04851820       0.01303980      -0.15811600
Zn       5.70670900      -0.10236500       3.18007200       0.38788356      -0.02467930      -0.02865990       0.02270440
Zn       4.16252400      -2.36815600       4.76103300       0.35754315      -0.06386630      -0.00623286       0.02670260
Zn       4.68012800      -2.82106800       1.70666500       0.38768632      -0.03646730       0.01896760       0.05183840
O        5.33905800      -1.99517000       3.28812000      -0.38059104       0.04422210       0.03083790      -0.09472850
O        0.81006200      -5.83109500       3.33757000      -0.37655450      -0.02321980      -0.00421464      -0.01365290
O        2.86007700      -3.88993800       4.87375800      -0.35032553       0.08001780      -0.04344410       0.04788710
Zn       2.49001000      -4.90715500       3.26372300       0.38886399      -0.05895610       0.05675860      -0.04367540
O       -1.82782400       0.50681400      10.00890300      -0.36139402       0.07841650      -0.05865350       0.12759000
O       -4.02668500      -0.22895000       8.16915500      -0.36147888      -0.03799650      -0.16272700       0.02198920
O       -4.30195100       2.71755200       9.75960100      -0.38971617      -0.04880470       0.01371030       0.01962480
Zn      -3.69273800       0.94689700       9.69125100       0.39559024       0.06585430       0.17628000      -0.16459200
Zn      -4.90161600       3.17858900       4.85775100       0.38687319       0.08863430      -0.06876950       0.04907500
Zn      -4.66880000       0.62102100       6.51200700       0.35449191      -0.02751630       0.06069920       0.02085930
Zn      -4.98242400       3.31115200       8.02914600       0.38921850       0.17091100      -0.07894030      -0.07378700
O       -5.53120400       2.38088100       6.49550600      -0.37842714      -0.06491280       0.06605070       0.02278820
Zn      -0.54753400       1.98008900       9.94751700       0.36447493      -0.00336984       0.00431181      -0.07263430
Zn      -0.09233900       4.17535100       8.13614100       0.37184950       0.03462580      -0.05354650       0.00060267
Zn      -2.84200500       4.03151200       9.53780600       0.38791608       0.08471730      -0.10343100      -0.09002070
O       -0.99750100       3.89146100       9.84407700      -0.38582850      -0.06555600       0.03898080       0.05329090
O       -3.71955200       4.70422900       4.77869700      -0.37682519       0.01277850      -0.03995050      -0.06714520
O       -1.00063900       4.67602800       6.44193600      -0.34643750       0.06028470       0.13253500       0.01543840
O       -3.83525100       4.91141500       8.10721300      -0.39283990      -0.01642120      -0.00448821       0.02114660
Zn      -2.92619100       5.08828100       6.47272800       0.37881946      -0.05135790      -0.17538700       0.10109200
Zn       1.89463100      -4.37809000       6.55441500       0.35718281      -0.04065480      -0.04410880       0.04917650
Zn      -0.24046900      -5.86716700       4.96631400       0.38857285       0.00766753       0.11835400       0.04514930
Zn      -0.25530300      -5.93155000       8.13841200       0.38881155      -0.02730590       0.17373100      -0.07842690
O        0.79711100      -6.00582300       6.58662500      -0.37901779       0.02141930      -0.05596550       0.02780110
O       -3.42993000      -3.16956800       6.57765000      -0.34413373      -0.17916100      -0.01331930       0.05886830
O       -2.14599400      -5.57073700       4.91691000      -0.37955881       0.01930800       0.03999220      -0.04544330
O       -2.20978500      -5.72176000       8.26704300      -0.39278978       0.02717200      -0.00244630       0.02963600
Zn      -2.82237800      -5.05058400       6.62302900       0.38061336       0.16039500       0.03267370       0.06897590
O        2.34551400      -3.32944100       8.16324100      -0.36132718       0.14267500       0.02106680      -0.01091380
O        0.64998700      -1.75786600      10.02853800      -0.36244433       0.01543020       0.09199690       0.12769900
O       -0.02782700      -5.00517600       9.84203000      -0.39001480       0.01364840      -0.06320180       0.04304380
Zn       1.19890900      -3.59582100       9.71905000       0.39494741      -0.18482500      -0.00979766      -0.15456700
Zn      -3.39400900      -2.09655900       8.24661400       0.37044379       0.03862400       0.04667490       0.00187459
Zn      -1.25468500      -1.37221200      10.01623600       0.36532383      -0.01646200      -0.02821340      -0.07449050
Zn      -1.89735700      -4.39699200       9.66721000       0.38956165       0.03471840       0.13072900      -0.12459800
O       -2.68403600      -2.71752800       9.95692200      -0.38625505       0.01486010      -0.05902960       0.05901010
O        1.37863300       1.43066800       2.74664400      -0.34725450      -0.01359130      -0.14250400      -0.02639010
Zn      -0.62802600       1.76948200       2.76374900       0.32432580      -0.07675820       0.01987760      -0.00468729
Zn       1.53990300       2.36708000       4.43925900       0.33421228      -0.03519050       0.01747920      -0.07466490
O       -0.44353500       2.82336200       4.34323600      -0.35198250       0.08770880      -0.02417670       0.01542320
Zn       2.90276200      -0.08423400       5.93708000       0.33089608       0.07472660       0.22245100       0.00453464
O        1.95188900      -0.35716400       7.68698900      -0.34443906      -0.05682630      -0.08819320      -0.03742850
O        2.48306500       1.82866000       6.02350800      -0.34978402      -0.03924330      -0.11886300      -0.10629500
Zn       1.29798800       1.53005200       7.63310600       0.33010567       0.13513400       0.09474820       0.06801320
Zn      -1.36616200      -1.68533100       2.56329100       0.34813447       0.01425070       0.01981760      -0.02985480
O       -2.00584000       0.31411600       2.59692200      -0.34540629       0.14681800       0.05301180      -0.04892480
O       -2.16196800      -1.85031300       4.31753800      -0.35358400      -0.04614660       0.11076900       0.00434359
Zn      -2.74473200       0.06329200       4.40502000       0.33548686      -0.02104260       0.01000070       0.04242810
Zn       1.98676900      -0.49682600       2.54956000       0.34229243       0.10420600       0.02701350      -0.02763110
O        0.65309500      -2.13367300       2.55381000      -0.35159183      -0.01715670       0.16511100       0.01618460
O        2.56938000      -1.04758100       4.31353600      -0.35236760      -0.03799390      -0.06996290      -0.02148910
Zn       1.24377200      -2.53837700       4.40104600       0.33262270      -0.00222884       0.03740730      -0.07189530
Zn      -1.85582000       0.40355000       7.64498300       0.32984314      -0.14447000       0.04249060       0.02839360
O       -2.70574800       1.20617700       5.96244200      -0.35344867       0.11584200       0.04084560      -0.05928240
O       -0.58866000       1.94562600       7.70037100      -0.34323034       0.03123700      -0.01318650      -0.03340100
Zn      -1.36742900       2.63863000       6.00039900       0.32327996      -0.18912700      -0.01776150      -0.02916400
O        0.34143200      -3.01000800       6.03620400      -0.35166246      -0.04200430       0.03415070      -0.14105300
Zn      -1.53847900      -2.47380800       6.01591100       0.32322218       0.14180400      -0.18994200      -0.00072533
Zn       0.67845700      -1.79645700       7.63776800       0.33131990       0.00677145      -0.15919200       0.06395740
O       -1.28474100      -1.43606400       7.71010100      -0.34451690       0.01477100       0.07924850       0.01362110
O        2.19291100       5.50501100      -1.72472600      -0.37642311       0.00823409      -0.00212648       0.02955850
Zn       0.33331700       5.67617000      -1.83114500       0.38704983       0.02439390      -0.08608300      -0.08046460
O        5.79486400       0.87187600       1.55247500      -0.37650457       0.02752260       0.00405426      -0.02277620
Zn       2.76511000       4.32739300      -0.26394900       0.33500935       0.03506200       0.00832550      -0.01139660
Zn       5.04470600       2.62843200       1.48938500       0.38402920      -0.05845540      -0.02861080      -0.03472330
O        4.50681600       3.48389300      -0.11936400      -0.38216391       0.07426030      -0.02085240       0.03988880
O        1.98010800       4.81756500       1.48078300      -0.37727455      -0.00173072      -0.01657840       0.04560140
Zn      -5.34981300       0.10939200       0.01755200       0.37247265       0.18248800      -0.03470090      -0.08143810
Zn      -4.75109600       2.99913500       1.60977800       0.37581617       0.08635170      -0.04817720       0.00784801
O       -5.02524800       2.02627300       0.00066000      -0.37507957       0.04818760       0.02128700       0.05768500
Zn       0.12181900       5.15961600       1.54781500       0.39090826      -0.00305772      -0.01189400       0.06919270
O       -3.51347800       4.37947200      -1.75113400      -0.37822987       0.00263279      -0.01916270       0.00294200
O       -0.72869500       5.00298400      -0.26294700      -0.33192625      -0.03597250       0.04627560       0.05807710
O       -3.57332200       4.51507200       1.55710700      -0.37680545      -0.00890737       0.00286118      -0.01773040
Zn      -2.68456100       4.76580000      -0.08134100       0.38485205      -0.05230670      -0.09911250       0.01486450
O        2.72823500       0.03202400       0.81485000      -0.36220209      -0.02259230      -0.01516360       0.00317897
O        1.61944700       2.62631700      -0.85442700      -0.34530179      -0.06281760      -0.01073090       0.06577600
Zn       1.55417500       1.67977700       0.81844400       0.35944742       0.22547700       0.10898000      -0.06512070
Zn      -2.20770400       0.83991200       0.72503700       0.34875421      -0.03739930       0.02231460      -0.11145400
O       -0.72611100       2.11327900       0.82313200      -0.37263301      -0.16546800      -0.11914100       0.00494028
Zn      -0.37707500       3.06245300      -0.83003900       0.31987504       0.01121700       0.08996110      -0.05118980
O       -1.98010800      -4.81756500      -1.48078300      -0.37727455       0.00173072       0.01657840      -0.04560140
Zn      -2.76511000      -4.32739300       0.26394900       0.33500935      -0.03506200      -0.00832553       0.01139660
Zn      -5.04470600      -2.62843200      -1.48938500       0.38402920       0.05845540       0.02861080       0.03472330
O       -4.50681600      -3.48389300       0.11936400      -0.38216391      -0.07426030       0.02085240      -0.03988880
O       -5.79486400      -0.87187600      -1.55247500      -0.37650457      -0.02752260      -0.00405426       0.02277620
Zn      -0.12181900      -5.15961600      -1.54781500       0.39090826       0.00305769       0.01189400      -0.06919260
Zn       5.34981300      -0.10939200      -0.01755200       0.37247265      -0.18248800       0.03470090       0.08143810
Zn       4.75109600      -2.99913500      -1.60977800       0.37581617      -0.08635170       0.04817720      -0.00784799
O        5.02524800      -2.02627300      -0.00066000      -0.37507957      -0.04818760      -0.02128700      -0.05768500
O        0.72869500      -5.00298400       0.26294700      -0.33192625       0.03597250      -0.04627560      -0.05807710
O        3.51347800      -4.37947200       1.75113400      -0.37822987      -0.00263279       0.01916270      -0.00294200
O        3.57332200      -4.51507200      -1.55710700      -0.37680545       0.00890737      -0.00286118       0.01773040
Zn       2.68456100      -4.76580000       0.08134100       0.38485205       0.05230670       0.09911250      -0.01486450
Zn      -0.33331700      -5.67617000       1.83114500       0.38704983      -0.02439390       0.08608300       0.08046460
O       -2.19291100      -5.50501100       1.72472600      -0.37642311      -0.00823409       0.00212647      -0.02955850
Zn      -1.55417500      -1.67977700      -0.81844400       0.35944742      -0.22547700      -0.10898000       0.06512080
O       -2.72823500      -0.03202400      -0.81485000      -0.36220209       0.02259230       0.01516360      -0.00317897
O       -1.61944700      -2.62631700       0.85442700      -0.34530179       0.06281760       0.01073090      -0.06577600
Zn       2.20770400      -0.83991200      -0.72503700       0.34875421       0.03739920      -0.02231460       0.11145400
O        0.72611100      -2.11327900      -0.82313200      -0.37263301       0.16546800       0.11914100      -0.00494028
Zn       0.37707500      -3.06245300       0.83003900       0.31987504      -0.01121700      -0.08996110       0.05118980
Zn       3.39400900       2.09655900      -8.24661400       0.37044379      -0.03862400      -0.04667490      -0.00187458
Zn       1.25468500       1.37221200     -10.01623600       0.36532383       0.01646210       0.02821340       0.07449050
Zn       1.89735700       4.39699200      -9.66721000       0.38956165      -0.03471840      -0.13072900       0.12459800
O        2.68403600       2.71752800      -9.95692200      -0.38625505      -0.01486010       0.05902960      -0.05901010
O       -2.34551400       3.32944100      -8.16324100      -0.36132718      -0.14267500      -0.02106680       0.01091380
O       -0.64998700       1.75786600     -10.02853800      -0.36244433      -0.01543020      -0.09199690      -0.12769900
O        0.02782700       5.00517600      -9.84203000      -0.39001480      -0.01364840       0.06320180      -0.04304380
Zn      -1.19890900       3.59582100      -9.71905000       0.39494741       0.18482500       0.00979766       0.15456700
O        3.42993000       3.16956800      -6.57765000      -0.34413373       0.17916100       0.01331930      -0.05886830
O        2.14599400       5.57073700      -4.91691000      -0.37955881      -0.01930800      -0.03999220       0.04544330
O        2.20978500       5.72176000      -8.26704300      -0.39278978      -0.02717200       0.00244630      -0.02963600
Zn       2.82237800       5.05058400      -6.62302900       0.38061336      -0.16039500      -0.03267370      -0.06897590
Zn      -1.89463100       4.37809000      -6.55441500       0.35718281       0.04065480       0.04410890      -0.04917650
Zn       0.24046900       5.86716700      -4.96631400       0.38857285      -0.00766745      -0.11835400      -0.04514930
Zn       0.25530300       5.93155000      -8.13841200       0.38881155       0.02730590      -0.17373100       0.07842680
O       -0.79711100       6.00582300      -6.58662500      -0.37901779      -0.02141930       0.05596550      -0.02780110
O        4.72824700       0.51968100      -4.86481200      -0.34729166       0.11826400       0.06680080      -0.12524900
O        5.32006800      -2.22508500      -3.24957000      -0.37607006      -0.00825427      -0.02201960      -0.03791530
O        5.49821200       0.79673000      -1.72112900      -0.37842469      -0.05590360       0.01818950      -0.00279022
Zn       5.41277100      -0.31194300      -3.24458200       0.38573059      -0.04851820      -0.01303980       0.15811600
Zn       4.15974700       2.44501000      -4.84233500       0.35889343      -0.02073980      -0.05140820       0.09229020
Zn       3.04796400       4.90773000      -3.33327900       0.38982017      -0.02673690      -0.07865150      -0.01727650
Zn       4.89924000       2.63393300      -1.77750700       0.38812982      -0.05109770      -0.02417740      -0.01344660
O        4.49048500       3.63790900      -3.37436200      -0.38168028      -0.01133490       0.03341550       0.01468950
O       -1.83052200      -3.80611600      -8.07575300      -0.36395083       0.09990980      -0.15279200      -0.00155055
O       -1.37524500      -1.53915800      -9.94828000      -0.35925753       0.11337600       0.02165070      -0.07648270
O       -4.51228500      -2.57071400      -9.68916700      -0.39050116      -0.04968820      -0.05083170      -0.02507940
Zn      -2.68312700      -2.94580500      -9.60174800       0.39468754      -0.10170200       0.15255400       0.15886700
Zn      -3.63065300       1.83185900      -8.17114300       0.37082903       0.06731700      -0.01297560      -0.02709100
Zn      -1.98551500       0.31789600      -9.96008400       0.36509629      -0.01430530       0.01051950       0.07680800
Zn      -4.90241700      -0.64316300      -9.51635500       0.38701629       0.10755800       0.04983790       0.09365970
O       -3.86383300       0.88088300      -9.86375300      -0.38645937      -0.02449710      -0.04843240      -0.03992430
Zn      -2.92135800      -3.88059700      -6.43318700       0.36077840      -0.06453860      -0.00904478      -0.00510719
Zn      -5.23883200      -2.76657500      -4.77333800       0.38936036       0.09987090       0.08730410      -0.02128690
Zn      -5.38612800      -2.81093600      -7.95300600       0.38992818       0.15663200       0.13018800       0.09103190
O       -4.87185500      -3.74033600      -6.40436600      -0.37893945      -0.05929890      -0.04653210      -0.04317350
O       -4.49862500       1.32736500      -6.46713400      -0.34428327      -0.08652770       0.18356500      -0.04032350
O       -5.94307400      -0.96782500      -4.76185500      -0.37821880       0.07420640       0.00249032       0.04567110
O       -6.17129800      -1.01109100      -8.08522300      -0.39274478       0.01546700      -0.03196250      -0.02996330
Zn      -5.83023700      -0.12603100      -6.45984000       0.37926985       0.07598350      -0.13516500      -0.08178950
O        4.02668500       0.22895000      -8.16915500      -0.36147888       0.03799650       0.16272700      -0.02198920
O        1.82782400      -0.50681400     -10.00890300      -0.36139402      -0.07841650       0.05865350      -0.12759000
O        4.30195100      -2.71755200      -9.75960100      -0.38971617       0.04880470      -0.01371030      -0.01962480
Zn       3.69273800      -0.94689700      -9.69125100       0.39559024      -0.06585430      -0.17628000       0.16459200
Zn       0.09233900      -4.17535100      -8.13614100       0.37184950      -0.03462580       0.05354650      -0.00060270
Zn       0.54753400      -1.98008900      -9.94751700       0.36447493       0.00336989      -0.00431179       0.07263430
Zn       2.84200500      -4.03151200      -9.53780600       0.38791608      -0.08471730       0.10343100       0.09002070
O        0.99750100      -3.89146100      -9.84407700      -0.38582850       0.06555600      -0.03898080      -0.05329090
Zn       4.66880000      -0.62102100      -6.51200700       0.35449191       0.02751630      -0.06069920      -0.02085940
Zn       4.90161600      -3.17858900      -4.85775100       0.38687319      -0.08863430       0.06876960      -0.04907500
Zn       4.98242400      -3.31115200      -8.02914600       0.38921850      -0.17091100       0.07894030       0.07378700
O        5.53120400      -2.38088100      -6.49550600      -0.37842714       0.06491280      -0.06605070      -0.02278820
O        1.00063900      -4.67602800      -6.44193600      -0.34643750      -0.06028470      -0.13253500      -0.01543840
O        3.71955200      -4.70422900      -4.77869700      -0.37682519      -0.01277850       0.03995050       0.06714520
O        3.83525100      -4.91141500      -8.10721300      -0.39283990       0.01642120       0.00448821      -0.02114660
Zn       2.92619100      -5.08828100      -6.47272800       0.37881946       0.05135790       0.17538700      -0.10109200
Zn      -4.16252400       2.36815600      -4.76103300       0.35754315       0.06386630       0.00623292      -0.02670260
Zn      -5.70670900       0.10236500      -3.18007200       0.38788356       0.02467930       0.02865990      -0.02270440
Zn      -4.68012800       2.82106800      -1.70666500       0.38768632       0.03646730      -0.01896760      -0.05183830
O       -5.33905800       1.99517000      -3.28812000      -0.38059104      -0.04422210      -0.03083790       0.09472850
O       -2.86007700       3.88993800      -4.87375800      -0.35032553      -0.08001780       0.04344410      -0.04788710
O       -0.81006200       5.83109500      -3.33757000      -0.37655450       0.02321980       0.00421464       0.01365290
Zn      -2.49001000       4.90715500      -3.26372300       0.38886399       0.05895610      -0.05675860       0.04367540
Zn       2.69275700      -4.99264800      -3.19072700       0.38010909      -0.03053300       0.03752900      -0.04445130
Zn      -0.00937600      -4.84484800      -4.68044300       0.36571442      -0.02053630       0.08866570       0.04908890
O        0.87760800      -5.58859900      -3.11031100      -0.38260827      -0.00704673      -0.02228870       0.03289490
O       -4.62706900      -3.53433600      -3.13485800      -0.37618135      -0.01721370       0.01049970      -0.02164530
O       -1.96711800      -4.41471900      -4.73356100      -0.34978847      -0.00704334      -0.12053300      -0.09442530
Zn      -2.98450500      -4.47949800      -3.05197300       0.38947938       0.05463560       0.10289300       0.08788610
O        1.28474100       1.43606400      -7.71010100      -0.34451690      -0.01477100      -0.07924850      -0.01362110
Zn      -0.67845700       1.79645700      -7.63776800       0.33131990      -0.00677142       0.15919200      -0.06395740
Zn       1.53847900       2.47380800      -6.01591100       0.32322218      -0.14180400       0.18994200       0.00072530
O       -0.34143200       3.01000800      -6.03620400      -0.35166246       0.04200430      -0.03415070       0.14105300
Zn       2.74473200      -0.06329200      -4.40502000       0.33548686       0.02104270      -0.01000070      -0.04242820
O        2.00584000      -0.31411600      -2.59692200      -0.34540629      -0.14681800      -0.05301180       0.04892480
O        2.16196800       1.85031300      -4.31753800      -0.35358400       0.04614660      -0.11076900      -0.00434359
Zn       1.36616200       1.68533100      -2.56329100       0.34813447      -0.01425070      -0.01981770       0.02985480
Zn      -1.29798800      -1.53005200      -7.63310600       0.33010567      -0.13513400      -0.09474820      -0.06801320
O       -1.95188900       0.35716400      -7.68698900      -0.34443906       0.05682630       0.08819320       0.03742850
O       -2.48306500      -1.82866000      -6.02350800      -0.34978402       0.03924330       0.11886300       0.10629500
Zn      -2.90276200       0.08423400      -5.93708000       0.33089608      -0.07472670      -0.22245100      -0.00453462
Zn       1.85582000      -0.40355000      -7.64498300       0.32984314       0.14447000      -0.04249070      -0.02839360
O        0.58866000      -1.94562600      -7.70037100      -0.34323034      -0.03123700       0.01318650       0.03340100
O        2.70574800      -1.20617700      -5.96244200      -0.35344867      -0.11584200      -0.04084560       0.05928240
Zn       1.36742900      -2.63863000      -6.00039900       0.32327996       0.18912700       0.01776150       0.02916400
Zn      -1.98676900       0.49682600      -2.54956000       0.34229243      -0.10420600      -0.02701350       0.02763110
O       -2.56938000       1.04758100      -4.31353600      -0.35236760       0.03799390       0.06996290       0.02148910
O       -0.65309500       2.13367300      -2.55381000      -0.35159183       0.01715670      -0.16511100      -0.01618460
Zn      -1.24377200       2.53837700      -4.40104600       0.33262270       0.00222891      -0.03740730       0.07189530
O        0.44353500      -2.82336200      -4.34323600      -0.35198250      -0.08770880       0.02417670      -0.01542320
Zn      -1.53990300      -2.36708000      -4.43925900       0.33421228       0.03519050      -0.01747920       0.07466490
Zn       0.62802600      -1.76948200      -2.76374900       0.32432580       0.07675820      -0.01987760       0.00468727
O       -1.37863300      -1.43066800      -2.74664400      -0.34725450       0.01359130       0.14250400       0.02639010
140
Properties=species:S:1:pos:R:3:hirshfeld:R:1:forces:R:3 dipole_vector="-0.036738672593936775 0.027036801434858163 -0.5120624773714955" energy=-3581695.38450193 pbc="F F F"
Zn       0.61708646       7.50563980      -0.90842034       0.39506072      -0.02012380      -0.05826090       0.05518070
Zn      -1.20456054       8.56105080       1.50738366       0.39613848       0.05040110      -0.19805000       0.01003130
Zn      -2.56848154       7.03426480      -0.92962734       0.39390375       0.02529930      -0.05674970       0.06115130
O       -1.10683554       8.13179580      -0.33100734      -0.37365318      -0.00222536       0.00516564       0.00843280
O       -6.34737354      -1.02552720       3.07614466      -0.38177356       0.01775370       0.02038850      -0.02207300
O       -5.11602454       2.00334680       3.15525266      -0.38067329       0.03136770       0.01635610      -0.00098768
O       -3.85283054       5.02515580       3.17360266      -0.38156921       0.01023290       0.01255450      -0.01927530
O       -2.54410654       8.04699480       2.83151466      -0.39076879       0.01809230       0.01401190      -0.00636817
O       -3.98133854       6.66058380       0.29909666      -0.38132712       0.01253020       0.03480220      -0.03849210
Zn      -6.35074454       0.76149480       2.41319366       0.37887437       0.00048652      -0.01371550      -0.04300390
Zn      -5.09427354       3.77380680       2.45668666       0.37887988      -0.00084759       0.00517713      -0.06553970
Zn      -3.61643854       6.64422480       2.17726766       0.36841861       0.12936500      -0.03256260      -0.00136962
O        3.97728846       6.73767280      -2.09496934      -0.37458728      -0.04893840       0.09504080       0.00638698
O        7.05437546       5.47307180      -1.28593134      -0.39828065      -0.02229500      -0.03266420      -0.00460450