216
Lattice="13.891356 0.0 0.0 0.0 13.891356 0.0 0.0 0.0 13.891356" Properties=species:S:1:pos:R:3:forces:R:3:hirshfeld:S:1 energy=-5526108.596477415 pbc="T T T"
Zn      -0.00742800      -0.00786200       0.00237100       0.06195910       0.03507019      -0.03514533 0.33719427
Zn       2.32593100       2.31724300       0.01110500      -0.08206933      -0.03721266      -0.12703441 0.33739555
Zn       2.30340300       0.01442200       2.32321500       0.02422428      -0.03569434      -0.02855589 0.33527807
Zn      -0.01187200       2.32432300       2.31267200       0.03608936       0.01470310      -0.01180973 0.33666418
O        1.14586800       1.16400200       1.15910400       0.03152315      -0.00049588      -0.00408222 -0.33614459
O        1.15610200       3.48341100       3.46401300       0.03753068      -0.09218546       0.00171779 -0.33480199
O        3.49005400       3.46875300       1.15051600      -0.07128277       0.05624964       0.10557160 -0.33429846
O        3.48034000       1.14708200       3.47878400      -0.02135050       0.09031368      -0.04855161 -0.33508893
Zn       0.00867800       0.00069200       4.61670000       0.03378146      -0.05080345       0.06993966 0.33668353
Zn       2.32446500       2.32806900       4.61300800      -0.00236463      -0.04801351       0.06811830 0.33564077
Zn       2.31677900       0.00634000       6.94073000      -0.01005827       0.05491476      -0.06840048 0.33678884
Zn       0.02445100       2.29963400       6.94227600      -0.01028627       0.03065355       0.04680161 0.33614771
O        1.17169900       1.15691000       5.76240100      -0.00504132       0.05615348       0.08657273 -0.33566378
O        1.15285900       3.49206100       8.10354900       0.05951430      -0.11578537      -0.01827467 -0.33712829
O        3.48372200       3.46102800       5.79689200      -0.08653864       0.08067043      -0.12119091 -0.33577119
O        3.46547200       1.15408400       8.10898700       0.05336970      -0.00724608      -0.01054374 -0.33445231
Zn       0.01110000      -0.01633100       9.28423400      -0.04988866       0.09915328      -0.08804649 0.33514602
Zn       2.30951200       2.31663400       9.25473600      -0.01170139       0.10129133       0.00378616 0.33650237
Zn       2.31425300      -0.01281500      11.56132200       0.06516458       0.02336558       0.08934766 0.3359921
Zn       0.00375400       2.31945900      11.58408700       0.02362225       0.02935036      -0.02657316 0.33907911
O        1.16421100       1.16220200      10.41685200      -0.05717013      -0.02150133       0.06571962 -0.33487382
O        1.16790000       3.47956300      12.73106000      -0.00458983       0.01402560       0.04824615 -0.33707353
O        3.47269000       3.48088200      10.40285800      -0.02902350      -0.04302642       0.07072522 -0.33611365
O        3.46784400       1.16379300      12.72367000       0.02627357      -0.07128858       0.01582508 -0.3376729
Zn       0.00695500       4.63968800      -0.00065000       0.02517409      -0.01939384      -0.07856239 0.33704028
Zn       2.32647600       6.93157300       0.01171000       0.03882606       0.08303456      -0.03958480 0.33576159
Zn       2.32605500       4.62371500       2.30951500      -0.03328039       0.02642043      -0.01794939 0.33588366
Zn      -0.00896300       6.94293200       2.30780700      -0.04360303      -0.02337967       0.15029350 0.33724557
O        1.16054500       5.79139400       1.17052100      -0.01907976      -0.06074026      -0.09788836 -0.33445035
O        1.13800400       8.08841800       3.48924200       0.06383886       0.11777517      -0.07903905 -0.33584521
O        3.46989500       8.11079300       1.16884000       0.06359031      -0.05529183      -0.04188647 -0.33734145
O        3.46653900       5.79143400       3.46366100       0.08936264      -0.06428414       0.03377969 -0.33522951
Zn       0.00549900       4.61464600       4.64367700      -0.07242841       0.10219443      -0.03430053 0.337828
Zn       2.32113800       6.94289200       4.63362200      -0.08893765      -0.00818381      -0.03280055 0.33701871
Zn       2.32659500       4.63499900       6.94107600      -0.04050630      -0.08141977       0.02167494 0.33603565
Zn       0.01038700       6.93940100       6.95487900       0.00437724       0.06521633      -0.09390248 0.3372407
O        1.16424500       5.78282000       5.78724500       0.00792647       0.01275408       0.03568488 -0.33531506
O        1.15633500       8.11491700       8.11066800       0.01595126      -0.09562680      -0.05385146 -0.33574437
O        3.46569800       8.11211000       5.78165500       0.00692822      -0.02213285       0.04437697 -0.33464699
O        3.47712100       5.78773800       8.10367800      -0.01410695       0.02733209      -0.03148575 -0.33332073
Zn      -0.00924300       4.63893500       9.26554700       0.07692918      -0.06809384       0.02120334 0.33664506
Zn       2.32324300       6.93820300       9.25106500      -0.09142394       0.07119274       0.03632261 0.3369955
Zn       2.32085800       4.64150300      11.56808600      -0.02429384      -0.04639100      -0.02880570 0.33737438
Zn       0.01314500       6.94587300      11.58569500      -0.03517051       0.07306797      -0.00470589 0.33660517
O        1.15359800       5.80273800      10.41150000       0.04278337      -0.10128028       0.04234028 -0.3352752
O        1.16790700       8.10437700      12.75756400      -0.08506576      -0.05403010      -0.05084067 -0.33669007
O        3.45864600       8.08508400      10.43349500       0.11636590       0.14020126      -0.08035725 -0.33477253
O        3.48317200       5.78198200      12.72796200      -0.03922952       0.08768130       0.08016550 -0.33578807
Zn      -0.00615600       9.26523700       0.01349800       0.07008844      -0.00469312      -0.03995510 0.3365888
Zn       2.32599400      11.57516700      -0.01132000      -0.08599822       0.02886135       0.05948443 0.33773727
Zn       2.29519500       9.24713100       2.33011000      -0.02057833       0.01021917      -0.09540828 0.33591932
Zn       0.01341500      11.59468500       2.32111300       0.00600553      -0.12897781      -0.01434422 0.33627346
O        1.16082000      10.42305600       1.15350900       0.00414955      -0.00175411       0.07388580 -0.33719556
O        1.17889500      12.72516100       3.48530100      -0.08804245       0.05678340      -0.09889569 -0.33423596
O        3.45400700      12.74853100       1.16363100       0.12422983      -0.09123890      -0.04514845 -0.33676316
O        3.48221900      10.40532000       3.45253900      -0.12128235       0.03747324       0.09302299 -0.33375422
Zn      -0.00450900       9.28458300       4.62648800      -0.09854391      -0.08346445       0.01490601 0.33726853
Zn       2.33324200      11.56084800       4.62481700      -0.03824655      -0.00052395       0.01257339 0.33691916
Zn       2.30314300       9.26388800       6.94091000       0.02156242       0.06079811       0.02505303 0.33616125
Zn      -0.00887400      11.59117600       6.95322300       0.07885968       0.03080252      -0.08368238 0.33772315
O        1.15079700      10.43784500       5.78758200       0.03135528      -0.09053200       0.01013068 -0.33581841
O        1.16533500      12.75540000       8.09315400      -0.07317256      -0.17852707       0.12000699 -0.33397193
O        3.45526600      12.73590200       5.78462600       0.18078818      -0.03022325       0.00559386 -0.33468853
O        3.47437800      10.41254700       8.10398000      -0.03344860      -0.00219004      -0.01611755 -0.33728396
Zn      -0.01578100       9.26232800       9.25775200       0.04376683      -0.04161413       0.06310156 0.33552156
Zn       2.30524500      11.58075200       9.24830500       0.07635448      -0.09282112       0.03988388 0.33674957
Zn       2.31482800       9.25584000      11.58725800      -0.03570502      -0.00474383      -0.01252821 0.33893869
Zn      -0.00981100      11.57172500      11.55480200       0.07851108       0.01734856       0.10249426 0.33546475
O        1.15969000      10.40526200      10.41923300      -0.02679960       0.11343082      -0.05060939 -0.33648359
O        1.14970300      12.73001600      12.72915700       0.00844137      -0.00688639      -0.03805464 -0.33730363
O        3.48233000      12.70976300      10.41530000      -0.04238626       0.13602952       0.03257159 -0.33691337
O        3.48526700      10.41175400      12.73428900      -0.04771342       0.03742485       0.00996764 -0.33361195
Zn       4.62548900       0.00593500       0.00485100      -0.01800294       0.07989669       0.03199324 0.3363945
Zn       6.93549600       2.31742300       0.00318200       0.10792561       0.01094806       0.05303735 0.3379775
Zn       6.93499900      -0.00725300       2.33367800       0.04093963       0.02288948      -0.16010163 0.33789735
Zn       4.62705000       2.31869100       2.32810000       0.10615401      -0.06752258      -0.03419247 0.33475293
O        5.79617000       1.16152900       1.17100900      -0.12365748      -0.03620180      -0.03743284 -0.33681651
O        5.80852100       3.46178400       3.47526600      -0.12368242       0.11594424      -0.01082022 -0.33621297
O        8.11490500       3.47938900       1.16125100      -0.10460574       0.03919391      -0.05382924 -0.33800024
O        8.10566700       1.16300200       3.45746500      -0.03405009      -0.07155415       0.15624325 -0.33358054
Zn       4.63767800      -0.02014300       4.62387200      -0.10596185       0.04584998       0.03810077 0.33737512
Zn       6.95823800       2.30315600       4.63504600      -0.03135373       0.08283313      -0.01006807 0.3367534
Zn       6.92972800       0.00517100       6.94363500      -0.00962509       0.01178769       0.05213949 0.33514146
Zn       4.62645500       2.29781200       6.94789200       0.00683760       0.04775858      -0.00127277 0.33672041
O        5.77717600       1.15821600       5.77112200       0.07321672      -0.07525813       0.09123021 -0.33473818
O        5.77646600       3.46943100       8.09705000       0.06191240      -0.03502958       0.03517202 -0.33527614
O        8.09253200       3.48848600       5.79344900       0.03583134      -0.10784911      -0.07494198 -0.33467014
O        8.10825400       1.15440800       8.08966600      -0.01042763       0.01035532       0.06234855 -0.33565907
Zn       4.63148200       0.01320200       9.27543700      -0.02819770      -0.11259559      -0.02646739 0.33678322
Zn       6.95069100       2.31167900       9.24187900      -0.02798705       0.04006975       0.03359468 0.33586997
Zn       6.94050300       0.00151800      11.57531200      -0.00875273       0.07503700       0.11202797 0.3375946
Zn       4.63170900       2.32636900      11.56988500      -0.09814798      -0.02191632      -0.00296223 0.33715621
O        5.79279100       1.17247300      10.41606100      -0.00243573      -0.07237704       0.00729078 -0.33480129
O        5.77586700       3.47241800      12.73563700       0.13194860       0.00977292      -0.00416240 -0.33442452
O        8.09286500       3.47079300      10.41561800       0.08049562      -0.01778517      -0.04765870 -0.33528555
O        8.09905800       1.16729700      12.73496900       0.03601331      -0.06165431      -0.05373276 -0.3376289
Zn       4.64249700       4.63805100       0.00131600      -0.08925242      -0.05176353      -0.07630893 0.33527888
Zn       6.96123400       6.93134600       0.00935700      -0.08790515       0.10825840      -0.07268188 0.33634953
Zn       6.94203900       4.64120200       2.31251200       0.08597679      -0.10594540       0.01924646 0.33604984
Zn       4.63836900       6.94289200       2.31054500      -0.06836330       0.04905337       0.01031516 0.33674554
O        5.78797600       5.78649900       1.14958400       0.02606532       0.02582677       0.08624411 -0.33258754
O        5.79492400       8.08021700       3.48331800      -0.04390292       0.07628158      -0.01727906 -0.33521214
O        8.08951300       8.10657700       1.16250800       0.06149805      -0.02137407      -0.04261807 -0.33262726
O        8.09983200       5.80148600       3.46694500      -0.00132039      -0.06728083       0.03454412 -0.33567825
Zn       4.62492300       4.62187700       4.61629800       0.03350575      -0.02586729       0.03216084 0.33671663
Zn       6.95142900       6.93469300       4.65031800      -0.06325216      -0.03442808       0.00185352 0.3359988
Zn       6.93621600       4.62854700       6.95232300      -0.02717528       0.10897657       0.00612667 0.33621957
Zn       4.61562600       6.94942600       6.94185000       0.09304049       0.05468821       0.02566499 0.3364106
O        5.75871300       5.78031300       5.78944100       0.17172966       0.03470840       0.01219237 -0.33661461
O        5.79069900       8.09526700       8.11745300      -0.09408425      -0.00971888      -0.10179011 -0.33659495
O        8.09606500       8.10232600       5.80525700      -0.03292538       0.00645159      -0.03931013 -0.33419588
O        8.11295600       5.77784300       8.11397800      -0.12534760      -0.01135504      -0.01760839 -0.33724609
Zn       4.63362100       4.63440800       9.25756500      -0.00212496      -0.03999694       0.01499533 0.33669596
Zn       6.93806100       6.93081900       9.27560600       0.08302634       0.01599993      -0.06195451 0.33701865
Zn       6.94537500       4.62268100      11.57798300      -0.04230300      -0.02465915       0.00701413 0.33781416
Zn       4.63761500       6.96297400      11.58377500       0.05347344      -0.03985185       0.10152162 0.33712182
O        5.77891200       5.77771400      10.43402200       0.05213002       0.08672744      -0.04491904 -0.33486516
O        5.80709500       8.11343600      12.75946000      -0.08995528      -0.02589751      -0.15050808 -0.33795722
O        8.09571100       8.12307300      10.40495500      -0.00863255      -0.13031499       0.08714555 -0.33557995
O        8.09946000       5.79358200      12.72400800      -0.02185338      -0.08910691       0.02150689 -0.33296607
Zn       4.63738500       9.27824500       0.01280900      -0.01765000      -0.16339213       0.03224779 0.33585614
Zn       6.94309500      11.56820900       0.00878100       0.06993929       0.04853646      -0.04165353 0.33677393
Zn       6.93689000       9.24477200       2.32455200       0.01285324       0.05805342       0.04617657 0.33707502
Zn       4.62614100      11.57370000       2.30904700      -0.08360801       0.04275967      -0.08702627 0.33766498
O        5.79606600      10.41728200       1.17591000      -0.04457188       0.02286788      -0.08103836 -0.33363247
O        5.77821500      12.71159900       3.46932900       0.08091783       0.11512046       0.03741445 -0.33282044
O        8.09236400      12.74684200       1.14726200       0.03931205      -0.05069128       0.10536875 -0.33620034
O        8.10033700      10.42078700       3.45291800       0.02179437       0.05239627       0.17862834 -0.33687678
Zn       4.62171600       9.25353000       4.61214400       0.08915430      -0.01331333       0.05538750 0.33617569
Zn       6.94891900      11.58052400       4.63314100       0.01277048      -0.10845719      -0.03807236 0.33604005
Zn       6.92335700       9.26375000       6.94247400       0.01464475       0.03579737       0.06799565 0.33851584
Zn       4.61893100      11.58486400       6.94394400       0.02299167      -0.04666735       0.04142876 0.33708056
O        5.77062200      10.42433900       5.77108700       0.06743664      -0.03353957       0.09346362 -0.33680131
O        5.78436500      12.73611700       8.10922700      -0.01312661       0.02962507      -0.03571586 -0.33680856
O        8.09203400      12.74843900       5.79400100       0.04074734      -0.10294588      -0.09231108 -0.33390375
O        8.10362300      10.41862500       8.09896900      -0.03927290       0.05134825      -0.02148128 -0.33681337
Zn       4.62567000       9.24900500       9.27170800      -0.06359162       0.01306758      -0.04838870 0.33799675
Zn       6.95023400      11.57955100       9.26356300      -0.00646132      -0.00449903      -0.06371718 0.33794225
Zn       6.94972600       9.27299500      11.57674100      -0.01279522      -0.00703117       0.02853563 0.33542038
Zn       4.64485700      11.56500800      11.58664800      -0.02107724       0.09635452      -0.05234505 0.3354707
O        5.78261800      10.42208100      10.40424500       0.08218848      -0.04353147       0.13184083 -0.33486978
O        5.78655200      12.74214100      12.75031100       0.00413453      -0.07982711      -0.10738052 -0.33593543
O        8.10501100      12.74924600      10.42358800      -0.03621610      -0.11119618      -0.03747248 -0.33361182
O        8.11524000      10.42663000      12.73534400      -0.08749785      -0.00242084      -0.03783266 -0.33688304
Zn       9.26612700       0.00095900      -0.00018100      -0.12471129       0.00419360      -0.06396270 0.33786805
Zn      11.57022800       2.31878900       0.01544800      -0.08355911       0.02646668      -0.05480011 0.33597608
Zn      11.58411700       0.00944000       2.29882800      -0.05897946      -0.00659693       0.08226331 0.33719226
Zn       9.26145700       2.33207400       2.33304000       0.05049415       0.03412693      -0.09084380 0.33777473
O       10.39708300       1.15946400       1.16115000       0.18774650       0.05688950       0.03011005 -0.33508264
O       10.43963000       3.48313100       3.48993000      -0.10324528      -0.07132661      -0.12960916 -0.33547584
O       12.73290100       3.48657100       1.14463000      -0.00530482      -0.03432813       0.09608328 -0.33423799
O       12.74285100       1.15548000       3.47667000      -0.05707798       0.05137182      -0.11937776 -0.3345239
Zn       9.24729900      -0.00417200       4.62108800       0.14307879       0.01819855      -0.03202843 0.3358772
Zn      11.58939300       2.31498200       4.63324300      -0.04881087      -0.02835406       0.06870056 0.33704173
Zn      11.57897200       0.00409400       6.93234100      -0.01817929      -0.01351738       0.04836055 0.33710722
Zn       9.25500100       2.32639200       6.93747200       0.11261476      -0.01757946       0.00961677 0.3368563
O       10.40746200       1.15662100       5.77765800       0.04711324       0.01569076       0.02666386 -0.33712848
O       10.44448000       3.47012700       8.08982300      -0.10546838      -0.05532623       0.06059047 -0.33684348
O       12.74123300       3.46012900       5.80696900       0.04653126       0.00826668      -0.11489820 -0.33490448
O       12.76380400       1.13265000       8.09711000      -0.09135857       0.08527775       0.00722222 -0.33645475
Zn       9.26025200       0.00463500       9.27420500       0.11677606      -0.01374271      -0.18925999 0.33783687
Zn      11.60324200       2.30158300       9.24451200      -0.01394009       0.01043413      -0.04135249 0.33750216
Zn      11.56616600       0.01568700      11.59732600       0.04483924       0.04681992      -0.00712833 0.33648012
Zn       9.26136500       2.31090800      11.56028000      -0.04422200      -0.00725326       0.08400754 0.33523147
O       10.43269800       1.16289700      10.41157900      -0.05686827       0.00721345       0.00370338 -0.33482245
O       10.40890100       3.46441000      12.73075700       0.04979221       0.04478500      -0.01481841 -0.33598362
O       12.73126200       3.47177500      10.41676900       0.04107534      -0.03219196       0.01228026 -0.33559253
O       12.73364000       1.17904100      12.75029800      -0.00627980      -0.14355020      -0.05352603 -0.33553158
Zn       9.26129100       4.63779200      -0.01733000      -0.02357108      -0.09107201       0.08745960 0.33571168
Zn      11.57981800       6.93380800      -0.01166700      -0.06501670       0.00556215       0.04098790 0.33683655
Zn      11.57696700       4.63801200       2.30406900      -0.00991272       0.04475135       0.09636208 0.33561212
Zn       9.25502500       6.96163200       2.30507800       0.03581317      -0.04395820       0.11094372 0.33538377
O       10.39947500       5.78948400       1.16110700       0.14344912       0.03401942      -0.07228575 -0.33587898
O       10.39689200       8.11264700       3.48491000       0.09882066      -0.01224785      -0.04879510 -0.33672293
O       12.72183900       8.10560600       1.15952400       0.00805605      -0.08807330      -0.04178866 -0.3346018
O       12.73275500       5.78001300       3.48585900      -0.00306944       0.02260382      -0.07554370 -0.33794044
Zn       9.25014300       4.62931100       4.61814300       0.00819267       0.02232372       0.01137639 0.33658934
Zn      11.56006000       6.93969400       4.63194300       0.08524369       0.06273272      -0.00676997 0.33734776
Zn      11.59145600       4.64226600       6.93383600      -0.09449616      -0.08312764      -0.01078264 0.33705017
Zn       9.25668800       6.93576900       6.94600200       0.03417953      -0.01107923       0.05078433 0.33726141
O       10.40648800       5.77296600       5.78034700       0.03861897       0.09603857       0.06322550 -0.33502152
O       10.41981500       8.08653800       8.10444000       0.03606137       0.09303942      -0.01020824 -0.33667936
O       12.74456900       8.09298500       5.78721500      -0.06601611       0.06581094       0.00063341 -0.33846405
O       12.73760400       5.78147400       8.09843900       0.01727234       0.07192880      -0.00625573 -0.33230797
Zn       9.27693200       4.60785500       9.25935300      -0.00233222       0.06674606      -0.02236553 0.33606555
Zn      11.58588500       6.92803600       9.25515700      -0.04897797       0.12188688       0.06863544 0.33585567
Zn      11.56672900       4.62231400      11.57056500      -0.04757676      -0.00248761      -0.03739522 0.3363646
Zn       9.23900500       6.94356200      11.56470600       0.11183277       0.10728875      -0.07044643 0.33731801
O       10.41438200       5.79854000      10.41290100      -0.02070366      -0.14952531       0.04364353 -0.33614094
O       10.40727600       8.08587900      12.73599800       0.02334116       0.06175763      -0.02202195 -0.33683667
O       12.73489100       8.09392400      10.42294500      -0.01465736       0.04906102      -0.00411571 -0.33744761
O       12.72624000       5.77548700      12.71505600       0.09026377       0.06740275       0.14393879 -0.33513063
Zn       9.25271100       9.24750500       0.00403600       0.06903304       0.10131871      -0.04542898 0.33705558
Zn      11.58668500      11.57819700      -0.00983200      -0.04761395      -0.08127729       0.03687839 0.33722217
Zn      11.56832200       9.25746300       2.31462700      -0.10181432       0.10486685       0.02642165 0.33807813
Zn       9.26130100      11.58947400       2.30289200       0.03074341      -0.01459469      -0.01046980 0.33680542
O       10.41498200      10.42961500       1.13941800       0.01600827      -0.10982164       0.08371323 -0.33758211
O       10.43314100      12.74487700       3.46054600      -0.14430784      -0.05544157       0.09530195 -0.33739712
O       12.73316800      12.72198200       1.16343700       0.03188009       0.13533864      -0.08844175 -0.33369095
O       12.72085900      10.43811700       3.45525800       0.08333884      -0.11835681       0.09986849 -0.33656278
Zn       9.23699300       9.26819800       4.64619200       0.09775023       0.04077416      -0.04211012 0.3372492
Zn      11.57295800      11.57865100       4.64072000      -0.02943180      -0.00071941      -0.06881168 0.33668602
Zn      11.58813100       9.25283700       6.95675200      -0.05003127      -0.08422413      -0.07355486 0.33627514
Zn       9.25603600      11.58819300       6.94125600       0.09941986      -0.03952012       0.08638258 0.33645144
O       10.42689700      10.40943300       5.80411100      -0.10634167       0.08767300      -0.09097932 -0.3368328
O       10.43626600      12.73061700       8.10756000      -0.14154276       0.04923216       0.00443336 -0.33889612
O       12.74514700      12.73911500       5.77684000      -0.07262334       0.01460194       0.02524949 -0.33508066
O       12.73377200      10.43146400       8.09529100       0.00980755      -0.04330335       0.14276983 -0.33369965
Zn       9.26474900       9.26343600       9.25414200       0.04026793      -0.02664867      -0.03576528 0.33824872
Zn      11.58422700      11.57372300       9.27952800      -0.10924748       0.01706779      -0.08681301 0.33666183
Zn      11.58024100       9.25781000      11.59286400      -0.04939025      -0.15446180      -0.05082511 0.33648864
Zn       9.26845900      11.58172800      11.56165300      -0.04446238      -0.06005777       0.10467836 0.33743829
O       10.42483100      10.40697100      10.43321600      -0.00646592       0.04700847      -0.13077911 -0.33511852
O       10.42187300      12.72528300      12.73001500      -0.02048828       0.12371211       0.03843279 -0.33458424
O       12.71254700      12.75281800      10.43254100       0.14935265      -0.10880059      -0.00513443 -0.33380803
O       12.74070100      10.41341300      12.72591400       0.00102702       0.03759868       0.06065266 -0.33434785
216
Lattice="13.891356 0.0 0.0 0.0 13.891356 0.0 0.0 0.0 13.891356" Properties=species:S:1:pos:R:3:forces:R:3:hirshfeld:S:1 energy=-5526107.825246965 pbc="T T T"
Zn      -0.01153400      -0.02161900       0.00029600       0.03600288      -0.05658618      -0.09791550 0.33535749
Zn       2.33050900       2.30828200       0.01592100       0.01098156      -0.02331128      -0.20570458 0.34016895
Zn       2.27931000       0.04503700       2.32253300       0.07963248      -0.09435501       0.04320671 0.33759119
Zn      -0.02786200       2.33297600       2.30908200      -0.02549733       0.01990495      -0.08274095 0.33456272
O        1.11478400       1.17707000       1.13043500       0.27678089      -0.09407202       0.26660040 -0.3342668
O        1.14040400       3.48630000       3.43833200       0.22564646      -0.06992327       0.14832755 -0.33438436
O        3.52146600       3.47455700       1.14461400      -0.21278280      -0.09568702       0.13227943 -0.33259954
O        3.49701700       1.12639200       3.50298300      -0.12972911       0.29735215      -0.32982738 -0.33547372
Zn       0.01935700      -0.00102900       4.60075700      -0.00472963      -0.04201374       0.05471557 0.33947499
Zn       2.33952300       2.35922800       4.58655900       0.01517041      -0.11724214       0.07431386 0.33078574
Zn       2.31734800       0.03353200       6.92831600      -0.01130832      -0.10621232      -0.09819301 0.34065814
Zn       0.06770100       2.27567000       6.95249700      -0.11027428      -0.03001129      -0.01416739 0.33370128
O        1.20270900       1.16978900       5.71286200      -0.12921494       0.03636739       0.34443153 -0.33508578
O        1.14212500       3.52306000       8.09415600       0.14577218      -0.33222637       0.05271964 -0.3345491
O        3.49916600       3.46447800       5.79624400      -0.17553654      -0.05246419      -0.12484735 -0.3354632
O        3.46427300       1.13527900       8.14240200      -0.02278502       0.14856295      -0.21505575 -0.33293289
Zn       0.02683200      -0.03762100       9.32248300      -0.12407939       0.20169259      -0.04914901 0.33454435
Zn       2.29195600       2.33338900       9.23548900      -0.00755922       0.04588069       0.14662871 0.33574781
Zn       2.32226700      -0.04177900      11.54632200      -0.01339732       0.01231444       0.04061040 0.3343538
Zn       0.01125000       2.33190100      11.59376600       0.05718425       0.04571392       0.14635900 0.33962962
O        1.16831600       1.18925600      10.44704000      -0.02012132      -0.29648687      -0.20604508 -0.33607958
O        1.20382600       3.48073900      12.74768000      -0.14168251       0.09938255      -0.07091318 -0.33732845
O        3.45358500       3.47242500      10.39944300       0.11852618       0.07900343      -0.00956201 -0.33668571
O        3.45195900       1.14333200      12.69247100       0.13793737       0.04470525       0.24237792 -0.33734547
Zn       0.02681200       4.65827500      -0.01683200       0.00980675      -0.13716234      -0.03504148 0.33364587
Zn       2.35311600       6.91430200       0.02252100      -0.04750967       0.08475771       0.02642975 0.3338993
Zn       2.34732400       4.60795000       2.29760000      -0.14870253       0.14710071       0.06487283 0.33473318
Zn      -0.03780900       6.93980500       2.30613200       0.05916573      -0.08588306       0.18125543 0.33812269
O        1.16457600       5.78198800       1.19143700       0.04197438       0.11427912      -0.19898606 -0.33592845
O        1.08710100       8.05763600       3.53530500       0.32699981       0.36559079      -0.41105093 -0.33586969
O        3.46811500       8.14199200       1.16533800       0.02345582      -0.31246070       0.08394025 -0.33627272
O        3.47829200       5.80433000       3.45625300      -0.06463431      -0.17576683       0.03418775 -0.33424677
Zn      -0.00265800       4.59703400       4.66106200      -0.01113023       0.08404735      -0.01460839 0.34003995
Zn       2.33238200       6.94116200       4.63791900      -0.15057626       0.00403458       0.03143989 0.33919321
Zn       2.33332800       4.62927400       6.93001400      -0.05154449       0.07459910      -0.02611243 0.33488914
Zn       0.03122700       6.95355700       6.95639700      -0.00957549       0.05917106      -0.14358020 0.33521632
O        1.15263700       5.79015100       5.77952500       0.22797496      -0.12397215       0.10645104 -0.33621614
O        1.15761200       8.12455700       8.13806300      -0.10282033      -0.04573694      -0.27560023 -0.33536369