9
Properties=species:S:1:pos:R:3:mulliken:R:1 dipole_vector="0.00401 -0.34209 -0.04677" energy=-7253.490987894153 pbc="F F F"
O        0.02126866      -1.81177508      -0.24834088       0.10119800
C        0.00741460      -0.63180964      -0.08674593       0.19455800
C       -1.06124562       0.45799552       0.07879780       0.01097300
O       -0.01697557       1.44606594       0.19819672      -0.21110800
C        1.05015828       0.48661864       0.05079997       0.01082600
H       -1.70765297       0.61793678      -0.79365588       0.22341500
H       -1.68061340       0.37492896       0.98106440       0.22333400
H        1.69525339       0.42069464       0.93629865       0.22327400
H        1.66863626       0.66370719      -0.83842669       0.22352900
14
Properties=species:S:1:pos:R:3:mulliken:R:1 dipole_vector="-0.48279 -0.16605 0.00324" energy=-8819.131204429053 pbc="F F F"
O        1.40699212       2.00800503      -0.00537929      -0.18736700
N        1.54099757       0.60510244      -0.01021231       0.00692400
C        0.40060692       0.02748515      -0.00294598       0.11512300
C        0.27479382      -1.48924688      -0.00605237      -0.19411300
C       -1.25589127      -1.75137563       0.00470893      -0.16396800
C       -1.86410614      -0.37125065       0.01329717      -0.02603600
C       -0.94398013       0.60217503       0.00898747      -0.11558100
H        2.32540857       2.29599034      -0.01170866       0.38461200
H        0.75763050      -1.91718777      -0.88868872       0.19050000
H        0.77068940      -1.92180305       0.86704849       0.19050500
H       -1.58538367      -2.32544734      -0.87000013       0.19183300
H       -1.57221345      -2.33059223       0.88088201       0.19183100
H       -2.93701759      -0.21216060       0.02195844       0.20832100
H       -1.12719294       1.66677366       0.01337175       0.20741600
15
Properties=species:S:1:pos:R:3:mulliken:R:1 dipole_vector="0.2034 -0.20908 -0.11166" energy=-9392.055582829116 pbc="F F F"
O        0.04816376       2.05386677      -0.33691541      -0.34337500
C        0.15487736       0.66643138      -0.30236014       0.12760200
C       -0.15066816      -0.17627628      -1.51253980      -0.25567700
C       -1.07467799      -0.19857105      -0.30905207      -0.08541900
C       -0.81589038      -1.28399381       0.71641306      -0.08729600
O        0.59932947      -1.28760435       0.91884578      -0.07026100
C        1.07747936       0.03865675       0.73508923      -0.08530400
H        0.77425688       2.39727246      -0.86846619       0.35999900
H       -0.51897179       0.35415259      -2.38368280       0.20444700
H        0.46520133      -1.04677713      -1.71784920       0.18503300
H       -2.05899598       0.24537456      -0.39151803       0.20571000
H       -1.35103807      -1.05637754       1.65235779       0.20115500
H       -1.09537913      -2.29252610       0.39449254       0.20868300
H        2.12777392      -0.03369207       0.43077073       0.20860400
H        1.01847358       0.63504797       1.66017436       0.22609800
13
Properties=species:S:1:pos:R:3:mulliken:R:1 dipole_vector="0.07673 -0.25714 -0.47112" energy=-7782.674438663824 pbc="F F F"
C       -0.97384571       1.77124586      -0.18568813      -0.40241200
C       -0.81331338       0.26042565      -0.29727687      -0.04113500
C        0.06601542      -0.31247351      -1.43303133      -0.07466600
O        0.96836642      -0.90517689      -0.44676769      -0.02234200
C        0.23035418      -0.38546686       0.59783935       0.19120100
N        0.41411449      -0.44111399       1.83625788      -0.08774400
H       -0.00942191       2.27890370      -0.28717118       0.15083100
H       -1.64598186       2.15302077      -0.96061365       0.18564000
H       -1.39024800       2.03498971       0.79026458       0.18415200
H       -1.78271280      -0.23958858      -0.21676952       0.19527900
H       -0.38141246      -1.08194549      -2.06649988       0.21269700
H        0.59098321       0.42711713      -2.04419717       0.21395800
H        1.25815570      -0.96816808       2.06649071       0.29454000
14
Properties=species:S:1:pos:R:3:mulliken:R:1 dipole_vector="1.34127 2.33783 0.10392" energy=-8820.819509964218 pbc="F F F"
O       -1.69226448      -2.01044157       0.14083700      -0.17900300
C       -1.61369281      -0.79427435       0.11435477       0.06872400
C       -0.38704016      -0.05071027       0.01726778       0.11253700
C       -0.27787449       1.29902270      -0.03983677      -0.00011600
N        1.01158814       1.72574475      -0.19944232      -0.09014300
C        1.92308112       0.59010049       0.04876558      -0.15927500
C        1.00258733      -0.64951329      -0.11347772      -0.20335500
H       -2.53064510      -0.16179596       0.17553368       0.13242000
H       -1.08289991       2.02405184      -0.01045736       0.22204400
H        1.27710334       2.65021962       0.10216431       0.29898200
H        2.75875381       0.60353671      -0.65522882       0.20084400
H        2.33331944       0.64893108       1.06608725       0.20006800
H        1.20473487      -1.42148961       0.63241899       0.20215100
H        1.13226723      -1.11656503      -1.09706952       0.19412300
15
Properties=species:S:1:pos:R:3:mulliken:R:1 dipole_vector="0.36152 -0.30414 0.14441" energy=-9393.560854757645 pbc="F F F"
O        0.25126040       2.18973275       1.05625797      -0.32466600
C        0.27613847       0.78859315       0.85881726       0.01176100
C       -1.16843591       0.26353127       0.79943217      -0.21131100
C       -1.05309400      -1.10186737       0.10869576      -0.21462900
C        0.17305080      -0.98260902      -0.80809035       0.20942400
O        0.51528333      -1.78668797      -1.63453882       0.02453100
C        0.88632228       0.33261091      -0.47735166      -0.18942600
H        1.15750721       2.49873438       1.15172349       0.34455500
H        0.80607645       0.29246269       1.68837101       0.14969900
H       -1.63507963       0.22348131       1.78579806       0.19313100
H       -1.74972729       0.96118447       0.18594345       0.16862200
H       -0.84227931      -1.90416001       0.82809801       0.20474100
H       -1.93566983      -1.41062319      -0.45642406       0.21453600
H        0.61750612       1.06465594      -1.25143925       0.20660000
H        1.97257278       0.21501517      -0.49101877       0.21243200
11
Properties=species:S:1:pos:R:3:mulliken:R:1 dipole_vector="-0.9798 0.06292 0.51941" energy=-9324.48703871726 pbc="F F F"
O       -1.02407773      -2.88410956       1.54378785      -0.03006400
C       -1.05104734      -1.72300202       1.24780819       0.16509600
C        0.17574898      -0.80564280       1.34312160      -0.21916400
C        0.22622032       0.18236644       0.28177909       0.08443800
C        0.24482589       0.98706060      -0.61855961       0.06228400
C        0.24669718       1.95168042      -1.69042611       0.11504200
O        1.23999428       2.48733226      -2.12367580      -0.05208400
H       -1.97694135      -1.21787339       0.89928008       0.20114400
H        0.10927143      -0.29143651       2.31455484       0.23751700
H        1.07688025      -1.42645471       1.37427264       0.22204000
H       -0.75886881       2.17383105      -2.10125365       0.21375200
11
Properties=species:S:1:pos:R:3:mulliken:R:1 dipole_vector="0.23188 1.42872 -0.46201" energy=-7749.1539086530065 pbc="F F F"
O       -0.13192924      -2.01830449      -0.24296520      -0.00881200
C       -0.12993276      -0.82948332      -0.12642690       0.18270200
C       -1.26133849       0.24328561      -0.03967535      -0.12344600
C       -0.15644034       1.28819549      -0.24646781      -0.01684000
N        0.72711276       1.15587690       0.91514182      -0.17766100
C        0.92845443       0.24308430      -0.26695732      -0.01909000
H       -1.94677459       0.13051423      -0.88427964       0.20574000
H       -1.81815689       0.31571646       0.89631349       0.20434700
H       -0.20667061       2.19517190      -0.83356641       0.22667300
H        1.45934458       1.86287145       0.83745326       0.28898200
H        1.88127081       0.20713965      -0.77920240       0.23740600
19
Properties=species:S:1:pos:R:3:mulliken:R:1 dipole_vector="-1.15878 -1.00756 0.18144" energy=-8448.80152536639 pbc="F F F"
C        1.22613116       2.57238815       0.11761307      -0.36446700
C        1.24393430       1.03760478       0.10410055      -0.03624900
C        2.00752349       0.49621469       1.32023946      -0.40025000
C       -0.19451130       0.49207548       0.01802120      -0.29333000
C       -0.29143108      -1.02887467      -0.20092807      -0.18066900
C       -1.72853460      -1.49278973      -0.23486379       0.21458400
O       -2.24691558      -2.08514505      -1.14587790       0.07352500
H        2.24245506       2.97888927       0.13764913       0.17205200
H        0.72056808       2.97488510      -0.76627233       0.14829600
H        0.70096643       2.95037505       1.00303552       0.14092300
H        1.77578558       0.71478981      -0.80240516       0.11781600
H        2.10770524      -0.59305234       1.29834661       0.12830700
H        3.01799445       0.91532917       1.36077638       0.17016800
H        1.49896408       0.76795832       2.25335692       0.14119400
H       -0.73646640       0.76467441       0.93496655       0.15123400
H       -0.71433389       0.99709900      -0.80570514       0.17106000
H        0.19569013      -1.33256110      -1.13252656       0.19190600
H        0.19887552      -1.55514704       0.62964838       0.20707200
H       -2.31161294      -1.23208087       0.68113946       0.24682600
16
Properties=species:S:1:pos:R:3:mulliken:R:1 dipole_vector="0.45856 -0.75958 -1.45346" energy=-8851.64560335677 pbc="F F F"
C       -0.75662202       1.26666604      -1.29505849      -0.31927900
N       -0.63230175      -0.17483957      -1.46472115       0.02215600
C        0.65408806      -0.69930276      -1.90492141      -0.15299900
C        0.16195043      -0.96145233      -0.52198271      -0.06280000
C        0.86393521      -0.36091636       0.68612937      -0.17060100
C       -0.08273903      -0.16720954       1.85427363       0.11302800
O       -0.18372067       0.84520802       2.49684433      -0.14229300
H        0.17374497       1.77826171      -1.00422439       0.18684500
H       -1.09109494       1.69752100      -2.24383653       0.20823000
H       -1.51637898       1.48178196      -0.53745228       0.19117200
H        0.62607693      -1.47529696      -2.66579584       0.21460000
H        1.48222483       0.00298118      -2.00349017       0.19436500
H       -0.27959506      -1.93731889      -0.31799396       0.20084600
H        1.63841848      -1.07113942       1.01262328       0.20650800
H        1.35712405       0.58886312       0.47064574       0.15729900
H       -0.70460893      -1.06246035       2.09215206       0.15292300
18
Properties=species:S:1:pos:R:3:mulliken:R:1 dipole_vector="0.0929 0.32152 0.23923" energy=-8884.412924816059 pbc="F F F"
C        0.47823517       0.96493858      -2.06648634      -0.39454000
C       -0.57048210       0.45703909      -1.05861262      -0.17033900
C        0.07273289      -0.15044957       0.16507768       0.19919400
C        0.20737807      -1.64914473       0.27229767      -0.19190300
C       -1.13334986      -2.36107527       0.52010936      -0.38868600
N        0.54630022       0.52406678       1.14330104      -0.00452700
O        0.37651436       1.91161815       0.95985375      -0.12404200
H        1.13474605       0.15483848      -2.40032935       0.15696100
H       -0.01050928       1.38628854      -2.95018797       0.18727800
H        1.09716691       1.74087072      -1.61071479       0.15636600
H       -1.20535369       1.29245222      -0.75002652       0.17101400
H       -1.21180472      -0.28848501      -1.53931412       0.15987000
H        0.65435271      -2.03167419      -0.65551830       0.17581300
H        0.90189457      -1.87448212       1.08609766       0.17156000
H       -1.57465817      -2.03448023       1.46654038       0.16296200
H       -1.85679829      -2.15724247      -0.27572370       0.15267000
H       -0.98957383      -3.44474056       0.56723421       0.18666800
H        0.75929744       2.26642264       1.76858647       0.39368200
11
Properties=species:S:1:pos:R:3:mulliken:R:1 dipole_vector="0.16757 0.31771 0.09794" energy=-9324.764292409078 pbc="F F F"
O       -2.29760979      -1.05189345       0.45502566      -0.06650400
C       -1.33066360      -1.40153705      -0.16823843       0.13833500
C       -0.04976827      -0.56169097      -0.28377104       0.27983600
O        0.86835673      -0.99557258      -0.93081205      -0.06375200
C       -0.07207944       0.77294330       0.45325968      -0.36176200
C        1.14958208       1.54500879       0.32733347       0.00544900
C        2.16171936       2.18133115       0.22117343       0.12477600
H       -1.26509942      -2.36177716      -0.72073544       0.23324300
H       -0.94425050       1.33308997       0.08864607       0.23253000
H       -0.31069778       0.56160668       1.50481947       0.23254500
H        3.05644842       2.74570134       0.12823593       0.24530400
14
Properties=species:S:1:pos:R:3:mulliken:R:1 dipole_vector="0.27736 -0.45524 0.58444" energy=-7347.239844089169 pbc="F F F"
C       -0.60151634       1.97102589      -0.06703625      -0.36432500
C       -0.75026961       0.45423455       0.05525972       0.07400100
O       -0.17113754      -0.18685137      -1.08877285      -0.11203300
C        0.77653728      -1.17009541      -0.68696858      -0.03462700
C        0.83838733      -1.06717432       0.81127168      -0.09556900
C       -0.03073034      -0.15598884       1.23062195      -0.08889400
H        0.45560829       2.25219225      -0.07686787       0.16432600
H       -1.06373189       2.32003829      -0.99473887       0.19006600
H       -1.09195888       2.47562146       0.77231596       0.17811800
H       -1.82648679       0.21014219       0.08893948       0.21048800
H        0.45309576      -2.17017273      -1.02070206       0.22638700
H        1.74713261      -0.97075099      -1.16741623       0.22315700
H        1.49985387      -1.67001454       1.42062378       0.21478200
H       -0.22651619       0.13732941       2.25435338       0.21412200
14
Properties=species:S:1:pos:R:3:mulliken:R:1 dipole_vector="-0.19134 0.41154 0.90031" energy=-8820.824601190054 pbc="F F F"
C       -0.75321505       2.09080875       1.39962723      -0.33983800
N       -0.92672063       0.65275194       1.30625804      -0.11410900
C       -0.21975674      -0.01059111       0.30641553       0.22654600
C        0.42887123       0.52046700      -0.77336895       0.01891700
O        0.93989496      -0.48287727      -1.55779802      -0.12003500
C        0.62226459      -1.65089591      -0.95802157       0.08313900
C       -0.08580105      -1.43827795       0.18021365      -0.24454200
H        0.29994220       2.40126532       1.50113918       0.19342300
H       -1.15629074       2.56681085       0.49858770       0.18121600
H       -1.31551139       2.46898160       2.25644654       0.19542600
H       -0.86351953       0.18715866       2.20031814       0.28538000
H        0.59928014       1.52284217      -1.12332777       0.22178900
H        0.96339359      -2.54437449      -1.45512644       0.21417900
H       -0.47677354      -2.18829814       0.85049394       0.19850900
14
Properties=species:S:1:pos:R:3:mulliken:R:1 dipole_vector="0.61451 0.83785 -0.29043" energy=-9828.776706519873 pbc="F F F"
C        1.52574544       2.16138404      -0.09439079      -0.28074600
N        1.53822613       0.71219209       0.02345560       0.01356600
C        0.46016357       0.07156506      -0.00235326       0.22184600
C        0.30998475      -1.43425138       0.08124118      -0.03600200
O       -1.07521411      -1.62157752       0.33768883      -0.20952700
C       -1.71535888      -0.50304380      -0.21206932       0.05094900
O       -0.80744239       0.59088575      -0.10935941      -0.13598100
H        2.20509083       2.45737757      -0.90117236       0.20616300
H        0.53642288       2.59064422      -0.28865341       0.20906600
H        1.92226391       2.59855261       0.82915811       0.21751500
H        0.61619813      -1.90602694      -0.86498317       0.18971900
H        0.89124000      -1.86547999       0.89729900       0.19873800
H       -1.96572283      -0.65526948      -1.27519979       0.16095500
H       -2.61632306      -0.28005264       0.36524234       0.19374000
12
Properties=species:S:1:pos:R:3:mulliken:R:1 dipole_vector="0.88664 1.58978 -0.0013" energy=-9795.162322685237 pbc="F F F"
C        1.59416044       2.00957812      -0.00536615      -0.28101000
O        1.59225581       0.59089862      -0.01013543      -0.06647200
C        0.37116555       0.02250350      -0.00274496       0.28676600
C       -0.88472224       0.55338506       0.00884295       0.07086500
O       -1.79339883      -0.44680221       0.01230254      -0.00672500
N       -1.13655779      -1.66414932       0.00286968       0.02159400
C        0.14177925      -1.38279445      -0.00598050      -0.08384500
H        2.63901030       2.32150444      -0.01243270       0.21124000
H        1.08671591       2.40694818      -0.89444665       0.19177000
H        1.10062323       2.40092394       0.89415560       0.19176400
H       -1.27937793       1.55481104       0.01545538       0.24355300
H        0.87347446      -2.17719823      -0.01446365       0.22049900
14
Properties=species:S:1:pos:R:3:mulliken:R:1 dipole_vector="2.05202 0.26767 -0.56497" energy=-8818.687744546192 pbc="F F F"
C        1.00029028       2.72625139      -0.15639945      -0.30411700
N        0.88591142       1.28281153      -0.19044459      -0.01106400
C       -0.27760158       0.63008483       0.10708905       0.22426900
O       -1.31137563       1.19301649       0.42395864      -0.19530400
C       -0.16679313      -0.81768130       0.00940744      -0.07439300
C       -0.12723401      -2.02050954      -0.05700370       0.19003800
C       -0.09191165      -3.47165734      -0.13358550      -0.41453400
H        1.75146622       3.05011239       0.57287758       0.22414800
H        1.27001596       3.12866667      -1.13942632       0.22420300
H        0.02702607       3.12207020       0.13537189       0.22360600
H        1.68522515       0.72475879      -0.44101742       0.30599200
H       -1.06700820      -3.90354375       0.11460482       0.20460800
H        0.17804602      -3.80596137      -1.14120256       0.20122500
H        0.64633444      -3.88433698       0.56256659       0.20132300
13
Properties=species:S:1:pos:R:3:mulliken:R:1 dipole_vector="0.34853 1.14498 0.11798" energy=-9358.49330041519 pbc="F F F"
O       -0.60865106      -1.97843584      -0.20286389      -0.13783100
C       -0.62288749      -0.79939180      -0.01330369       0.11681000
C       -1.67015711       0.27030596       0.34694268      -0.05026700
O       -0.62697735       1.27518079       0.31635623      -0.00579200
C        0.37928990       0.31515293      -0.01908788       0.18603800
C        1.78505792       0.34878319       0.50685832      -0.20663900
C        1.51781600       0.58147530      -0.96077029      -0.20674900
H       -2.44538747       0.44251869      -0.40819013       0.21973500
H       -2.12764382       0.16578490       1.33721794       0.21974700
H        2.04194413       1.20990267       1.11394068       0.21308100
H        2.22404394      -0.59228993       0.82057231       0.21929400
H        1.76999495      -0.19694113      -1.67296219       0.21941600
H        1.59667907       1.59760287      -1.33135347       0.21315500
14
Properties=species:S:1:pos:R:3:mulliken:R:1 dipole_vector="0.76776 -0.2813 -0.34496" energy=-9828.720522558293 pbc="F F F"
C       -0.50022441       1.92229340      -0.52768043      -0.39063600
C       -0.78417660       0.43614839      -0.31483336       0.10048500
O       -0.32760891      -0.38038300      -1.39678567      -0.12028800
C        0.90061427      -0.93001783      -1.00913222       0.03802600
O        0.90100162      -0.99735081       0.41701478      -0.06730800
C       -0.04958534      -0.13725983       0.88395603       0.13842300
N       -0.27964383       0.14021198       2.09081425      -0.16908300
H        0.57222260       2.10974361      -0.63920268       0.14205900
H       -1.01139619       2.27674560      -1.42627929       0.19290700
H       -0.85898438       2.48735524       0.33654818       0.19194200
H       -1.85972438       0.26953010      -0.20987910       0.18861100
H        0.99301185      -1.94131382      -1.41544396       0.23632500
H        1.75386696      -0.31145258      -1.32995376       0.23708400
H        0.35990529      -0.35663854       2.71223021       0.28145300
11
Properties=species:S:1:pos:R:3:mulliken:R:1 dipole_vector="0.14913 0.38378 -1.18667" energy=-10233.2947380467 pbc="F F F"
C        0.08446890       2.08454073      -0.38607369      -0.30499300
N        0.05336872       0.64191233      -0.33931177       0.16247000
N        0.17552614      -0.12788926      -1.47891723      -0.10039800
C        0.09957615      -1.32908672      -1.03495532       0.20787300
O       -0.06322199      -1.43521789       0.30347378      -0.09464500
C       -0.09673669      -0.11969656       0.78771812       0.33220100
O       -0.22949700       0.18600709       1.93867433      -0.10033600
H        1.03747519       2.43595560      -0.79107912       0.22040400
H       -0.73268731       2.46717895      -1.00381078       0.22041900
H       -0.03239566       2.43919132       0.63892629       0.21155000
H        0.15262804      -2.23308021      -1.61933134       0.24545500
13
Properties=species:S:1:pos:R:3:mulliken:R:1 dipole_vector="0.80919 -0.88748 -0.31372" energy=-10369.272869347224 pbc="F F F"
O        1.70429311       2.12700086       0.33801931      -0.36901000
C        1.54217586       0.74726514       0.17320364      -0.12494500
C        0.16336276       0.45030247      -0.39497379       0.27471100
O       -0.65229925       1.30118343      -0.64179389      -0.04464400
C       -0.14225030      -1.03387880      -0.60899698      -0.18292400
C       -1.39191283      -1.43592827       0.16382589       0.12446800
O       -1.46840036      -2.42179667       0.84651154      -0.04007400
H        2.58008385       2.28638270       0.70174690       0.35095900
H        2.28229096       0.30196222      -0.51644342       0.18872000
H        1.62869112       0.18220107       1.11948602       0.18717800
H       -0.36900689      -1.15879517      -1.67603648       0.22643700
H        0.68307761      -1.69704563      -0.33990298       0.20587500
H       -2.23797712      -0.72852249       0.04387036       0.20324900
13
Properties=species:S:1:pos:R:3:mulliken:R:1 dipole_vector="-1.00841 2.27692 0.42297" energy=-9255.76921968446 pbc="F F F"
O       -0.16363583      -2.10518195      -0.19171596      -0.17065800
C       -0.17088768      -0.90249797      -0.17760956       0.24092700
N       -1.27115728      -0.08696489      -0.06193557      -0.09823500
C       -0.99269058       1.33002391      -0.15323057      -0.14205800
C        0.53441395       1.32703164      -0.14693133      -0.05156700
C        1.23878635       0.67833753       0.98060562      -0.12178300
N        1.00756591      -0.06543568      -0.28275756      -0.04015500
H       -2.19573232      -0.48231837      -0.03025004       0.30881500
H       -1.37028126       1.76758867      -1.08686217       0.22617300
H       -1.42386461       1.89470873       0.68282219       0.23317900
H        1.04620923       2.06692709      -0.75253193       0.21547900
H        2.27944466       0.91528355       1.17679268       0.21146700
H        0.66021988       0.37945520       1.85113956       0.18841400
12
Properties=species:S:1:pos:R:3:mulliken:R:1 dipole_vector="0.2284 1.64246 1.18527" energy=-9794.254335452446 pbc="F F F"
N        0.08338530      -2.47033982      -0.65502876       0.13021000
C       -0.18485180      -1.34686027      -0.64426426      -0.22977100
C       -0.53032152       0.11057105      -0.63131511       0.34858900
O       -1.11735197       0.46630449       0.59012784      -0.03430100
C       -0.05826129       0.90768586       1.45203031      -0.10001500
C        1.17187221       1.01327031       0.52104227      -0.12899200
O        0.61352123       0.89535981      -0.79078227      -0.11709200
H       -1.22774693       0.32243731      -1.44627553       0.21869200
H       -0.35634137       1.86925820       1.87773327       0.23766200
H        0.09922334       0.18770957       2.26129993       0.22873800
H        1.68680115       1.97325578       0.57738531       0.22261600
H        1.88851668       0.20413276       0.70571772       0.22366400
13
Properties=species:S:1:pos:R:3:mulliken:R:1 dipole_vector="0.78982 0.08977 -0.64002" energy=-10368.855795885573 pbc="F F F"
C       -0.27332145       1.41321017       1.26084537      -0.36773200
C       -0.53840522      -0.03744785       0.81621387       0.03014600
O       -1.90596979      -0.34473194       0.89264461      -0.30438300
C       -0.03594922      -0.27333371      -0.59587732       0.27469400
O       -0.79093771      -0.53897394      -1.50673857      -0.10032200
C        1.46428969      -0.20444005      -0.89459873       0.15657000
O        2.30582897      -0.02341206      -0.05514166      -0.02750000
H        0.79745969       1.62223364       1.30745350       0.17368100
H       -0.75563652       2.11789470       0.57665111       0.16765700
H       -0.70751856       1.55113321       2.25360368       0.20691100
H        0.03215998      -0.70830913       1.47785710       0.19536000
H       -2.19842982      -0.52215074      -0.01375296       0.34721800
H        1.69180383      -0.36314368      -1.96922347       0.24769900
12
Properties=species:S:1:pos:R:3:mulliken:R:1 dipole_vector="0.40767 0.73613 0.27055" energy=-8784.45673960276 pbc="F F F"
O        0.00082670      -2.19236330       0.04252018      -0.02577000
C       -0.02228314      -0.99580977       0.04836578       0.17161100
C       -1.10403514       0.03691221       0.19926239       0.00392100
C       -0.10486746       0.89780671       0.93525720      -0.07534300
C        1.05295891       0.10446634       0.20767919       0.02654200
C        0.73953250       1.01130475      -0.99162903      -0.14057700
N       -0.60476939       1.33282765      -0.37445069      -0.05788600
H       -2.16996316      -0.06743643       0.34444555       0.23548600
H       -0.20219257       1.42017507       1.87624958       0.23595200
H        2.05140835      -0.13754170       0.56010998       0.22458200
H        1.32074307       1.93548295      -1.01741957       0.20786200
H        0.70232225       0.55858520      -1.98854887       0.19362000
12
Properties=species:S:1:pos:R:3:mulliken:R:1 dipole_vector="-0.1744 -0.19346 -0.47904" energy=-8322.01933769637 pbc="F F F"
C       -0.76892664       1.24990716       0.05762026      -0.06330100
O        0.60080684       1.25476635      -0.42770196      -0.09978300
C        0.53560577      -0.13832509      -0.77541649       0.04350700
C        0.92757352      -1.07385579       0.37851854      -0.06329600
O       -0.43379880      -1.06943780       0.88682456      -0.09969400
C       -0.89306641      -0.25834965      -0.20728216       0.04308900
H       -0.85027300       1.54568343       1.10882254       0.19520100
H       -1.40984377       1.88711419      -0.56502181       0.22295800
H        0.88077526      -0.34712784      -1.78925603       0.20156700
H        1.23229655      -2.08414028       0.07692291       0.22298500
H        1.64978870      -0.65845675       1.08913542       0.19513500
H       -1.78449912      -0.65573563      -0.69517893       0.20163100
13
Properties=species:S:1:pos:R:3:mulliken:R:1 dipole_vector="0.05773 0.42229 -1.10459" energy=-9359.061195275133 pbc="F F F"
O        0.34349658       2.15375725      -0.28890461      -0.27011700
C        0.30053083       0.78469961      -0.38367209       0.13596300
C        0.03157564      -0.00141582      -1.60285887      -0.22233900
C       -0.92351380      -0.21186143      -0.41244890      -0.03857000
C       -0.23293223      -1.00448202       0.64577644       0.16150800
O       -0.56715816      -1.91635826       1.34950208      -0.00858400
C        1.00553236      -0.06604126       0.67267584      -0.15588600
H        0.08875568       2.54032897      -1.13267105       0.36122500
H       -0.44616142       0.54134071      -2.41606366       0.19829800
H        0.69312141      -0.79675466      -1.93949719       0.21053200
H       -1.99047628      -0.06745610      -0.53135120       0.22118200
H        1.98702251      -0.47834652       0.42000374       0.19983600
H        1.05866557       0.44000943       1.64096576       0.20695300
11
Properties=species:S:1:pos:R:3:mulliken:R:1 dipole_vector="-0.55046 0.44195 0.0616" energy=-9221.445529248384 pbc="F F F"
N       -0.11941936       2.34813366       0.29169361      -0.11324700
C       -0.07533532       1.07405412       0.13368949       0.12215900
C       -1.26132185       0.24735364       0.04659660      -0.07356100
C       -1.11922882      -1.07531759      -0.11865814       0.13035800
O        0.06459032      -1.72310595      -0.21375129       0.03102300
N        1.25125981      -0.99871817      -0.13932343       0.01609600
C        1.15361047       0.27189088       0.01892807      -0.04184200
H        0.82481922       2.73966233       0.32806997       0.26626900
H       -2.24355812       0.69596591       0.11451570       0.22758600
H       -1.93538057      -1.78421189      -0.19588807       0.22976200
H        2.11856578       0.77441622       0.06877805       0.20539500
14
Properties=species:S:1:pos:R:3:mulliken:R:1 dipole_vector="0.2439 0.31764 -0.33335" energy=-8355.970667918371 pbc="F F F"