 96
 energy=-812943.95753963233 cutoff=6.00000000 nneightol=1.20000000 pbc="T T T" Lattice="13.20915500       0.00000000       0.00000000      -6.22208100      11.65193000       0.00000000       2.27764600       3.79829500      14.54923000" Properties=species:S:1:pos:R:3:forces:R:3:Z:I:1:map_shift:I:3:n_neighb:I:1:force:R:3
 Na              0.16191200      3.60384600      0.42543100      0.59721302     -0.02754399     -0.90918325      11       0       0       0      48      0.65472527     -0.00489173     -0.98174974
 Na              3.64422800      1.79865800     -0.20423700     -0.43961078      0.31164796      0.09242907      11       0       0       0      48     -0.51140445      0.31680504      0.07998227
 Na             -0.10322000      5.83974500      3.31941500     -0.52244379      0.04168842      0.28377689      11       0       0       0      54     -0.61285955      0.09498462      0.41163758
 Na              5.18752400      2.10530500      3.81060100      0.00186016      0.02952290     -0.11153388      11       0       0       0      51      0.03147296      0.03041189     -0.10497140
 P               1.14700800      1.86530700      6.08692300      0.73609217      0.01924520     -1.06509699      15       0       0       0      46      0.71899920     -0.05628069     -0.80866897
 P               3.70305700      5.92775700      1.08174200     -2.78737703     -0.53945830     -0.81528229      15       0       0       0      50     -2.64986833     -0.48201925     -0.95245396
 S               3.46337600      6.07047100      5.71994000     -0.91906252     -0.88584433     -0.72108419      16       0       0       0      43     -0.91310750     -0.84107569     -0.80029769
 S               1.27981400      1.43136300      1.64605400     -0.73906564     -0.08058903     -0.16677007      16       0       0       0      44     -0.71020324     -0.03336540     -0.13256985
 S               3.22936400      1.80243800      5.88039600     -0.71419242      0.07120881     -0.48214360      16       0       0       0      51     -0.61731769      0.10174072     -0.68210920
 S               0.21135900      3.45864600      5.27993100     -0.01248333      0.76890909      0.32104623      16       0       0       0      45     -0.02437429      0.91831834      0.20102227
 S               1.59369300      5.77515600      1.29051600      0.82316070      0.31474463      0.44607634      16       0       0       0      50      0.64540338      0.25200661      0.64451896
 S               4.65674000      4.22017600      1.44248700      0.37976857     -0.33625046      0.86517493      16       0       0       0      50      0.39203302     -0.38555086      1.05051371
 Na              1.23896500      5.48554000      7.59533300     -0.12283662      0.56802854     -0.43940534      11       0       0      -1      48     -0.13652093      0.54022083     -0.45188103
 Na              4.27514100      3.92918900      7.29956600      0.64213645     -0.07073978     -0.09754630      11       0       0      -1      46      0.62582264     -0.12846130     -0.08336740
 Na              0.04016400      7.58476600     10.87982300      0.40999626     -0.14446858      0.44387086      11       0       0      -1      48      0.39936250     -0.17481377      0.36751849
 Na              6.35893900      3.75144200     10.79303000      0.40586876      0.47294246      0.53802915      11       0       0      -1      53      0.47576749      0.46404919      0.54501211
 P               2.31986200      3.91652600     13.40911900     -0.52852779     -0.11840191     -1.60099910      15       0       0      -1      48     -0.50109046     -0.37696528     -1.67801415
 P               4.67457200      7.59942200      8.56580100     -1.24579357      0.02644812     -0.53958685      15       0       0      -1      47     -1.24066733      0.00515220     -0.67680947
 S               5.14325000      7.87906100     12.73845600     -1.38598194      0.05211896      0.31274314      16       0       0      -1      46     -1.36578938      0.07130838      0.24552861
 S               2.26448200      3.48456300      8.98181800     -1.31926305     -0.71543747      0.09642991      16       0       0      -1      42     -1.23615001     -0.72525808      0.06524203
 S               4.22327100      3.84369300     12.63591400      0.19882359     -0.05166762      0.47393856      16       0       0      -1      44      0.21796160     -0.04874492      0.56087877
 S               1.41860000      5.64111200     12.82238900     -0.11627112      0.12435452      0.60580187      16       0       0      -1      48     -0.19288852      0.17069212      0.59968236
 S               2.66280200      7.66042100      9.25449400      1.26195668      0.08579011     -0.49641746      16       0       0      -1      49      1.24811794      0.08288219     -0.47621514
 S               5.74842400      5.88429900      8.92793100     -0.38896176      0.19774896     -0.14177029      16       0       0      -1      49     -0.39993371      0.29132257     -0.11035363
 Na             -3.06688300      9.83098100     -0.24623700      0.26740189     -0.17006009      0.12953036      11       0      -1       0      47      0.25858036     -0.17618420      0.14119218
 Na              0.05105000      8.20210500     -0.00260300      0.15893600     -0.98076798      0.48992497      11       0      -1       0      47      0.19429335     -1.06782514      0.44802224
 Na             -4.01820700     11.36751900      3.42869300      0.21369267      0.04642316      0.37880238      11       0      -1       0      52      0.19082685      0.05604871      0.44428371
 Na              2.44771100      7.93097400      3.97521900     -0.44302790      0.16721212     -0.31212577      11       0      -1       0      50     -0.43897324      0.14360281     -0.37024054
 P              -1.95421200      7.71012500      6.04324300      0.62313514     -0.35343838     -1.08517515      15       0      -1       0      48      0.62815885     -0.34404398     -0.93313527
 P               0.34428100     11.86200500      1.25751400      0.10430137     -1.06148477      0.85327670      15       0      -1       0      45      0.12848868     -1.05413120      0.75193075
 S               0.47012800     11.91178400      5.45265600     -0.75123452     -0.15160352      0.38065998      16       0      -1       0      45     -0.78477119     -0.14117205      0.39589826
 S              -2.32107200      7.54790400      1.74856400      1.05699884      2.06021834      0.31081180      16       0      -1       0      43      1.08181602      2.03330704      0.39628985
 S               0.12181300      7.67435200      5.66076600     -0.90031217      0.12273986      0.40642011      16       0      -1       0      47     -0.88800203      0.10364764      0.28334064
 S              -2.92295900      9.46356100      5.39712400      0.29614423     -0.82478579      0.35322559      16       0      -1       0      47      0.26712900     -0.79341569      0.27092341
 S              -1.61899200     11.78553800      1.75609600     -0.44634581      0.08823777     -0.08645397      16       0      -1       0      45     -0.34717291      0.05986469     -0.10702131
 S               1.17598900      9.97592200      1.78637600      0.16288725      0.79684019     -0.24903912      16       0      -1       0      46      0.18407522      0.70785387     -0.21576248
 Na             -2.32316400     11.13510000      7.19771000      0.86603761      0.56210586      0.21827405      11       0      -1       0      44      1.01221612      0.65436095      0.25975882
 Na              1.42510200      9.95348300      7.47194300     -0.17070704     -0.56541780     -0.31524225      11       0      -1      -1      45     -0.19305194     -0.57559756     -0.31232875
 Na             -2.81545400     13.35687600     10.73517100      0.09223134     -0.11606415      0.16505922      11       0      -1      -1      50      0.07362165     -0.04672180      0.12108990
 Na              3.90671800     10.16389300     10.72305300     -0.49807200     -0.73735820     -0.07748246      11       0      -1      -1      50     -0.55395666     -0.74653747     -0.07924281
 P              -0.80205800      9.59545800     13.50943600      1.71122725     -0.37811833     -0.48021824      15       0      -1      -1      47      1.45921831     -0.31008268     -0.51615173
 P               1.56936700     13.55903500      8.50699900     -2.20485175     -1.34265557     -0.54654948      15       0      -1      -1      46     -2.27990395     -1.28368680     -0.56360958
 S               1.77314500     13.76735300     12.81434800     -0.15062899      2.04708392     -0.05883629      16       0      -1      -1      42     -0.14685818      1.98347739     -0.02427962
 S              -1.13453200      9.15585400      9.14126800      0.27742410      1.26171555     -0.17717989      16       0      -1      -1      44      0.34531836      1.27193773     -0.20234621
 S               1.22198700      9.49224400     13.13373400     -0.71529872      0.31824205     -0.63120667      16       0      -1      -1      48     -0.63983748      0.37834068     -0.63470606
 S              -1.80679900     11.24468000     13.06129500     -0.73094378      1.01988753     -1.11952022      16       0      -1      -1      51     -0.69269282      1.01387236     -1.17620082
 S              -0.48288100     13.78818800      8.96041200      0.51134794     -0.61922500     -0.56672378      16       0      -1      -1      49      0.50868442     -0.69432263     -0.58112175
 S               2.13584700     11.71128300      9.29117900      0.36015784      1.25092474     -0.26480372      16       0      -1      -1      46      0.43700335      1.20122101     -0.30238574
 Na              6.92651700      4.14611300     -0.03388600     -0.11784092      0.04685173      0.21261837      11      -1       0       0      47     -0.14569904     -0.04301347      0.18884328
 Na              9.73534900      1.93854800      0.01482700      0.46403446      0.08812483      0.44238222      11      -1       0       0      49      0.45034366      0.06694875      0.44625345
 Na              5.50542200      5.97100700      3.74830200      0.30633779     -0.51086943     -0.23047829      11      -1       0       0      54      0.29525541     -0.54494021     -0.20460513
 Na             11.46537400      2.38352500      3.47171700      0.09773087     -0.06235061      0.22985366      11      -1       0       0      48      0.24354130     -0.19823538      0.25826730
 P               7.62851100      1.90298700      6.16259000      1.63951122      0.12181855     -0.54543704      15      -1       0       0      49      1.79091689      0.12470901     -0.48763065
 P              10.11841800      5.87831900      1.08715100     -1.48122453     -0.68828229      1.91704892      15      -1       0       0      47     -1.44712135     -0.72906662      1.87127498
 S              10.35340200      6.04897300      5.18016900      0.17025447      0.43723536      0.70086385      16      -1       0       0      43      0.17709297      0.39858592      0.70081252
 S               7.43088000      1.94196900      1.96454100      0.26409659     -0.74720410     -0.39146785      16      -1       0       0      46      0.26179551     -0.78494454     -0.35262337
 S               9.71223300      1.60716200      5.56808100     -0.96182179      0.34404462      0.34191066      16      -1       0       0      49     -1.04960780      0.44156466      0.34971892
 S               6.96043900      3.75565100      5.48506200     -0.20254616     -1.06705951      0.24372738      16      -1       0       0      49     -0.30109361     -1.02419708      0.23007628
 S               8.24477100      5.61358900      1.94804500     -0.00793513      0.21299949     -0.54707366      16      -1       0       0      47      0.10150751      0.23858726     -0.67517886
 S              11.30287300      4.35236200      1.60916800      0.11882654     -1.23955903      0.91286694      16      -1       0       0      50     -0.00131325     -1.24950369      1.04669504
 Na              8.17684500      5.42484900      7.11795100     -0.33740947      0.95740050     -0.15151021      11      -1       0       0      49     -0.40467080      1.01516496     -0.11596941
 Na             10.86255800      3.79580700      6.93820400      0.47736509     -0.04954854     -0.09549245      11      -1       0       0      48      0.50124771     -0.10185627      0.00328088
 Na              6.94312700      7.54451600     10.74560000      0.26062328     -0.05390420      0.32313183      11      -1       0      -1      51      0.25162125     -0.07442521      0.26614323
 Na             13.29287000      3.87500900     11.05579000     -0.44092459      0.57323955     -0.66673129      11      -1       0      -1      50     -0.47760809      0.58120358     -0.71582583
 P               8.89309200      3.94160600     13.57401400      1.10495484     -0.79213021     -0.88522118      15      -1       0      -1      48      1.05040783     -0.82812832     -0.94265960
 P              11.13243500      7.58651700      8.33831500     -0.90431616     -0.86055639      0.24295288      15      -1       0      -1      50     -0.95341377     -0.90888364      0.28320935
 S              11.45529800      7.87032600     13.10862100     -0.50263556     -0.30784576     -1.19958510      16      -1       0      -1      45     -0.52128751     -0.25308643     -1.18531123
 S               8.80270400      3.56169800      8.84103400      1.05001921      0.45701448      1.19573502      16      -1       0      -1      45      1.05567872      0.44963479      1.24983133
 S              10.93700500      3.79214300     13.13174800     -0.34768093     -0.38625818     -0.19344724      16      -1       0      -1      48     -0.34673658     -0.34800039     -0.15771486
 S               8.28803200      5.79038300     13.03496100     -0.61966064     -0.44397054     -0.66109354      16      -1       0      -1      49     -0.61682113     -0.36601648     -0.70011789
 S               9.09294900      7.62142100      8.86902300      1.05107761     -0.30148669     -0.28365618      16      -1       0      -1      51      1.07540799     -0.25776326     -0.28053348
 S              12.04433800      5.81362100      8.84365900     -0.40728098      0.13706500     -0.01509913      16      -1       0      -1      52     -0.35179009      0.11846601      0.01735824
 Na              3.99539800      9.85760100      0.26937500     -0.50051989     -0.10754459     -0.29334103      11      -1      -1       0      51     -0.56143715     -0.11520489     -0.33618364
 Na              6.67573200      7.65031900     -0.12888300      0.14791961      0.01194429      0.15828104      11      -1      -1       0      44      0.21531120      0.09946431      0.15022180
 Na              2.42409000     11.42894900      3.56115900      0.34084358      0.33270372      0.38859358      11      -1      -1       0      50      0.39837426      0.35232727      0.41436315
 Na              8.86011100      7.97243300      3.75252200     -0.26899196     -0.50244189     -0.48020517      11      -1      -1       0      53     -0.22196180     -0.47830353     -0.46319714
 P               4.44898900      7.71080200      6.20039900      2.99913437      1.05746517      1.31828052      15      -1      -1       0      48      3.09884097      1.00342692      1.32576450
 P               6.98340400     11.52907300      1.09346600      0.79918352      1.02877033      0.74059333      15      -1      -1       0      48      0.78976185      1.04381034      0.66486949
 S               7.21137200     11.85101100      5.44744700     -0.20882826     -0.67730152      0.05788654      16      -1      -1       0      47     -0.26954603     -0.69641250      0.00105622
 S               4.29982400      7.62282200      1.98692400      0.85895190      0.55252113     -0.34170421      16      -1      -1       0      43      0.76239148      0.47328230     -0.32568523
 S               6.46880000      7.73629600      5.43523600     -0.83677249     -0.27950134      0.75989017      16      -1      -1       0      47     -0.81567883     -0.27933432      0.76898640
 S               3.79582200      9.58419500      5.82941500     -0.94299116      0.03449586     -0.41325141      16      -1      -1       0      49     -1.00657150     -0.00553296     -0.40064612
 S               5.09410600     11.72831700      1.91083000      0.40748426     -0.09757688     -0.51940489      16      -1      -1       0      47      0.29946075     -0.07192909     -0.52475272
 S               7.97320000      9.78904700      1.43182900     -0.43785105     -0.45972835      0.14321007      16      -1      -1       0      53     -0.40254718     -0.40363084      0.13939611
 Na              4.92286400     11.64733300      7.27500600      0.05183701     -0.09166320      0.11000438      11      -1      -1      -1      49      0.01931129     -0.04135222      0.12575424
 Na              7.97820200      9.43197400      7.30988600     -0.30981132      0.27536064     -0.46544300      11      -1      -1      -1      43     -0.27357119      0.28048005     -0.46256458
 Na              4.10472800     13.45341900     11.15588200     -0.13370619      0.22803263     -0.11039035      11      -1      -1      -1      49     -0.21970220      0.23907451     -0.22670797
 Na              9.82692500      9.62702600     10.93017400      0.19739592      0.01209058      0.02348004      11      -1      -1      -1      51      0.19916922      0.01273010     -0.06948015
 P               5.78072700      9.70901600     13.33390000      0.47976522     -0.75728379      0.19592530      15      -1      -1      -1      47      0.65094680     -0.57566380      0.37312598
 P               7.98363700     13.55378700      8.28427700      0.49801045      0.11223612      1.26750347      15      -1      -1      -1      49      0.40816187      0.20242976      1.29904361
 S               8.26490900     13.97392000     12.56996400      0.32871938     -0.98075762      1.21603483      16      -1      -1      -1      45      0.32711061     -0.96573530      1.28712839
 S               5.72661600      9.29911000      9.03223700      0.13393146      0.08047120     -0.19624038      16      -1      -1      -1      45      0.10254974      0.05155857     -0.08123565
 S               7.67968600      9.60360300     12.64349500      1.34233719      0.88172836     -0.08267698      16      -1      -1      -1      48      1.19250317      0.91614149     -0.06072997
 S               4.67061100     11.32985200     12.86372600      0.21258775      0.61486404      0.34790482      16      -1      -1      -1      51      0.28931378      0.58412276      0.23909183
 S               5.97157900     13.71535000      8.86649200      1.01789755      0.07760929     -0.10685073      16      -1      -1      -1      48      1.00572108      0.02775845     -0.10369521
 S               8.93670300     11.76774600      8.76656200     -0.75558776      0.23408852      0.77719594      16      -1      -1      -1      51     -0.72726673      0.16740726      0.84620961
 96
 energy=-812944.92998924816 cutoff=6.00000000 nneightol=1.20000000 pbc="T T T" Lattice="13.20915500       0.00000000       0.00000000      -6.22208100      11.65193000       0.00000000       2.27764600       3.79829500      14.54923000" Properties=species:S:1:pos:R:3:forces:R:3:Z:I:1:map_shift:I:3:n_neighb:I:1:force:R:3
 Na              0.19916300      4.11408600     -0.24707100     -0.09493354     -0.55313137      0.11163363      11       0       0       0      44     -0.08791844     -0.54636456      0.20417017
 Na              3.54092900      1.99507200      0.40119000     -0.10059773     -0.19284746     -0.60108214      11       0       0       0      48     -0.17387483     -0.13854351     -0.58896816
 Na             -0.90973800      5.58792200      3.49901500      0.30841065      0.16871103      0.56863784      11       0       0       0      53      0.24457326      0.20067816      0.55167033
 Na              5.11748700      2.06551800      3.62571400      0.40594923     -0.07400822      0.18958249      11       0       0       0      48      0.49576516     -0.11786750      0.11815766
 P               1.12472800      1.85456200      6.04891800     -0.28012136      0.16867349      0.52323117      15       0       0       0      47     -0.18534988     -0.04934544      0.54627454
 P               3.40252600      5.82023700      1.23468900     -1.62419391     -0.95142825     -1.72562792      15       0       0       0      50     -1.63857625     -0.97542261     -1.49678875
 S               3.54623900      6.03814000      5.41624300     -0.41992768      0.23781384      0.38265808      16       0       0       0      47     -0.40745134      0.23564513      0.43084275
 S               1.02232900      1.83407500      1.54210600     -0.10041547      0.17437757      0.82556776      16       0       0       0      46      0.04053793      0.27349306      0.87590153
 S               3.17120300      1.83353800      5.61459800     -0.72655396     -0.45285083     -0.49965064      16       0       0       0      46     -0.67433393     -0.35552819     -0.49585091
 S               0.20241300      3.68020100      5.61628200      0.31602073     -0.63675812     -0.26688179      16       0       0       0      48      0.35199021     -0.58715856     -0.22055843
 S               1.32978100      5.69210500      1.54756800      0.71678225      0.50981014      0.64516108      16       0       0       0      50      0.76709005      0.51154435      0.60977387
 S               4.35457700      4.15107600      1.81925800      0.68050402     -0.55681943      0.44057871      16       0       0       0      47      0.64319112     -0.58521177      0.38908746
 Na              1.19241700      5.89120900      7.26294900      0.40074502     -0.68343654      0.43703868      11       0       0       0      47      0.42775020     -0.69066078      0.44501970
 Na              4.28966700      3.87848900      7.04541100      0.20987680      0.09786584      0.12121333      11       0       0       0      47      0.22492426      0.11515506      0.11755449
 Na              0.31452000      8.06482200     10.49514400      0.06363625     -0.37668881      0.53917784      11       0       0      -1      52      0.02135192     -0.36079575      0.56898979
 Na              6.81215500      3.92548300     10.92457700     -0.50767742     -0.01291438     -0.40650362      11       0       0      -1      54     -0.53867328      0.04259089     -0.39941553
 P               2.42741300      3.79926000     13.48596100      1.31587535     -0.09653591     -1.65377018      15       0       0      -1      47      1.14202551     -0.20533409     -1.49493913
 P               4.61333100      7.75463000      8.45734600      0.01690820     -0.08902776      0.58452922      15       0       0      -1      49     -0.07922633     -0.20246099      0.53746451
 S               4.88233000      7.80639300     12.96621200     -0.66350014     -0.24932440     -0.58553632      16       0       0      -1      50     -0.63677478     -0.17726752     -0.56947059
 S               2.35325100      3.50146900      8.92015900     -0.66638271     -0.74279388      0.09921283      16       0       0      -1      47     -0.69493996     -0.71421989      0.05541290
 S               4.51855000      3.78019900     12.67234200     -1.80453433     -0.13918587      1.29658698      16       0       0      -1      50     -1.72312587     -0.07119795      1.12289929
 S               1.70231800      5.60108700     12.86248000     -0.80741093     -0.35815319     -0.20423781      16       0       0      -1      50     -0.84533788     -0.38968466     -0.33632828
 S               2.68220500      7.82121100      9.08741200     -0.57452791     -0.36274327      0.16904335      16       0       0      -1      48     -0.47959502     -0.32047978      0.12921560
 S               5.35583000      5.94263000      9.08520700      0.13286723      0.22251691     -0.47022140      16       0       0      -1      47      0.13962022      0.15519443     -0.41211409
 Na             -3.03943400      9.50517500     -0.43890600      0.49119301      0.46047641      0.25159790      11       0      -1       0      52      0.46559292      0.42799778      0.40239315
 Na              0.26464600      7.80236600      0.00869300      0.08762726      0.17890961     -0.10440859      11       0      -1       0      43      0.04818129      0.17375747     -0.08145466
 Na             -4.11442300     11.74029400      3.55604900      0.27651594     -0.00186187      0.33832556      11       0      -1       0      54      0.28426135     -0.04850650      0.26618343
 Na              1.62211700      7.95121500      3.85467700      0.34202070     -0.11104828     -0.24595054      11       0      -1       0      49      0.47118871     -0.20174580     -0.27148845
 P              -2.16984700      7.58029700      6.26550100     -0.02258100      0.38039533     -2.16529988      15       0      -1       0      46      0.06567430      0.32495755     -1.76284046
 P               0.47752200     11.58543100      1.24355500      0.91270976     -0.22979143     -0.64700989      15       0      -1       0      47      1.04835514     -0.28788497     -0.67626504
 S               0.77348500     11.76957000      5.36723700      0.15603933      1.16066503      0.32572677      16       0      -1       0      46      0.19092202      1.19326293      0.36955504
 S              -2.01979000      7.53479000      1.78726900      1.27266390      1.66910304      0.56031466      16       0      -1       0      44      1.31217678      1.70407631      0.57766238
 S              -0.17432500      7.49488200      5.82198600     -0.13392129      0.10639379     -0.47225977      16       0      -1       0      49     -0.01338141      0.16577090     -0.59981466
 S              -2.95368200      9.32967600      5.66315800     -0.27276183      0.61717422     -0.09887044      16       0      -1       0      48     -0.32177371      0.71906974     -0.19876401
 S              -1.39353700     11.63617100      1.83709400     -1.76534315     -0.64226669      0.35282198      16       0      -1       0      46     -1.86677227     -0.67223417      0.30479771
 S               1.46372700      9.74854200      1.60713500     -0.11165543      1.01466689     -0.16182346      16       0      -1       0      50     -0.18775846      1.01525985     -0.16154054
 Na             -1.25568200     11.66670000      7.24091200     -0.58903982     -0.10355201     -0.38320748      11       0      -1       0      49     -0.75976481     -0.14152600     -0.36639627
 Na              1.43147800      9.43845900      7.49502800     -0.35009482      0.61417821     -0.40586155      11       0      -1      -1      47     -0.43374593      0.57314356     -0.42997570
 Na             -2.56775400     13.26144000     11.05249500      0.09240235      0.15955452     -0.53278942      11       0      -1      -1      46      0.05178919      0.12351447     -0.45470851
 Na              3.48452000      9.77537900     10.88185300     -0.00391598      0.05597867      0.24670614      11       0      -1      -1      51     -0.01304386      0.04030091      0.22333330
 P              -0.63182200      9.68364400     13.49412700     -0.08072219      1.44241667      0.01666925      15       0      -1      -1      46     -0.03922694      1.36491069      0.02479919
 P               1.34213200     13.62181200      8.31041500     -0.17110156     -0.49955315      0.52840447      15       0      -1      -1      48      0.03015034     -0.46746779      0.65251555
 S               1.69551800     13.96549400     12.63362900     -0.23180193     -1.83024713      0.50406760      16       0      -1      -1      46     -0.21892656     -1.85162194      0.53503834
 S              -1.17614700      9.51760300      8.88218900     -0.47459357     -0.87455091      0.12297860      16       0      -1      -1      47     -0.39165694     -0.82468325      0.12814118
 S               1.30328700      9.80054500     12.83748900     -0.37875862     -0.03026127     -0.05999439      16       0      -1      -1      53     -0.39473922     -0.00663969     -0.05713068
 S              -1.78111800     11.26712100     12.80328500      0.08751421     -0.52841384      0.18046592      16       0      -1      -1      46      0.03888900     -0.40542337      0.15869116
 S              -0.68366700     13.72616700      8.78775500      0.85311570      0.57218271     -0.07381814      16       0      -1      -1      51      0.93757225      0.46914202     -0.16462361
 S               2.05373700     11.85632200      9.04746700      0.48040490     -0.31872488     -0.07024899      16       0      -1      -1      47      0.53111439     -0.20946649     -0.10195532
 Na              6.91072600      3.98740000      0.16028900     -0.22379350      0.00436963      0.07310570      11      -1       0       0      49     -0.17782847      0.04219145      0.07532612
 Na              9.77779000      2.09458000     -0.31331300      0.35714034     -0.74518069      0.39563255      11      -1       0       0      48      0.36878020     -0.81464921      0.54283490
 Na              5.84154100      5.63394800      3.72066000     -0.03232541      0.09684394     -0.20376755      11      -1       0       0      49     -0.11323397      0.17799071     -0.24141773
 Na             12.14514300      2.21504100      3.33354200     -0.05365710     -0.02908283      0.62828216      11      -1       0       0      49     -0.09089004     -0.07906389      0.54842519
 P               7.83584700      1.98417100      6.02805400      0.30016787     -2.01935404     -0.18188031      15      -1       0       0      46      0.05019578     -1.93777097     -0.19081445