96
Lattice="13.209155 0.0 0.0 -6.222081 11.65193 0.0 2.277646 3.798295 14.54923" Properties=species:S:1:pos:R:3:forces:R:3 energy=-812944.48423922 pbc="T T T"
Na       0.16191200       3.60384600       0.42543100       0.59721302      -0.02754399      -0.90918325
Na       3.64422800       1.79865800      -0.20423700      -0.43961078       0.31164796       0.09242907
Na      -0.10322000       5.83974500       3.31941500      -0.52244379       0.04168842       0.28377689
Na       5.18752400       2.10530500       3.81060100       0.00186016       0.02952290      -0.11153388
P        1.14700800       1.86530700       6.08692300       0.73609217       0.01924520      -1.06509699
P        3.70305700       5.92775700       1.08174200      -2.78737703      -0.53945830      -0.81528229
S        3.46337600       6.07047100       5.71994000      -0.91906252      -0.88584433      -0.72108419
S        1.27981400       1.43136300       1.64605400      -0.73906564      -0.08058903      -0.16677007
S        3.22936400       1.80243800       5.88039600      -0.71419242       0.07120881      -0.48214360
S        0.21135900       3.45864600       5.27993100      -0.01248333       0.76890909       0.32104623
S        1.59369300       5.77515600       1.29051600       0.82316070       0.31474463       0.44607634
S        4.65674000       4.22017600       1.44248700       0.37976857      -0.33625046       0.86517493
Na       1.23896500       5.48554000       7.59533300      -0.12283662       0.56802854      -0.43940534
Na       4.27514100       3.92918900       7.29956600       0.64213645      -0.07073978      -0.09754630
Na       0.04016400       7.58476600      10.87982300       0.40999626      -0.14446858       0.44387086
Na       6.35893900       3.75144200      10.79303000       0.40586876       0.47294246       0.53802915
P        2.31986200       3.91652600      13.40911900      -0.52852779      -0.11840191      -1.60099910
P        4.67457200       7.59942200       8.56580100      -1.24579357       0.02644812      -0.53958685
S        5.14325000       7.87906100      12.73845600      -1.38598194       0.05211896       0.31274314
S        2.26448200       3.48456300       8.98181800      -1.31926305      -0.71543747       0.09642991
S        4.22327100       3.84369300      12.63591400       0.19882359      -0.05166762       0.47393856
S        1.41860000       5.64111200      12.82238900      -0.11627112       0.12435452       0.60580187
S        2.66280200       7.66042100       9.25449400       1.26195668       0.08579011      -0.49641746
S        5.74842400       5.88429900       8.92793100      -0.38896176       0.19774896      -0.14177029
Na      -3.06688300       9.83098100      -0.24623700       0.26740189      -0.17006009       0.12953036
Na       0.05105000       8.20210500      -0.00260300       0.15893600      -0.98076798       0.48992497
Na      -4.01820700      11.36751900       3.42869300       0.21369267       0.04642316       0.37880238
Na       2.44771100       7.93097400       3.97521900      -0.44302790       0.16721212      -0.31212577
P       -1.95421200       7.71012500       6.04324300       0.62313514      -0.35343838      -1.08517515
P        0.34428100      11.86200500       1.25751400       0.10430137      -1.06148477       0.85327670
S        0.47012800      11.91178400       5.45265600      -0.75123452      -0.15160352       0.38065998
S       -2.32107200       7.54790400       1.74856400       1.05699884       2.06021834       0.31081180
S        0.12181300       7.67435200       5.66076600      -0.90031217       0.12273986       0.40642011
S       -2.92295900       9.46356100       5.39712400       0.29614423      -0.82478579       0.35322559
S       -1.61899200      11.78553800       1.75609600      -0.44634581       0.08823777      -0.08645397
S        1.17598900       9.97592200       1.78637600       0.16288725       0.79684019      -0.24903912
Na      -2.32316400      11.13510000       7.19771000       0.86603761       0.56210586       0.21827405
Na       1.42510200       9.95348300       7.47194300      -0.17070704      -0.56541780      -0.31524225
Na      -2.81545400      13.35687600      10.73517100       0.09223134      -0.11606415       0.16505922
Na       3.90671800      10.16389300      10.72305300      -0.49807200      -0.73735820      -0.07748246
P       -0.80205800       9.59545800      13.50943600       1.71122725      -0.37811833      -0.48021824
P        1.56936700      13.55903500       8.50699900      -2.20485175      -1.34265557      -0.54654948
S        1.77314500      13.76735300      12.81434800      -0.15062899       2.04708392      -0.05883629
S       -1.13453200       9.15585400       9.14126800       0.27742410       1.26171555      -0.17717989
S        1.22198700       9.49224400      13.13373400      -0.71529872       0.31824205      -0.63120667
S       -1.80679900      11.24468000      13.06129500      -0.73094378       1.01988753      -1.11952022
S       -0.48288100      13.78818800       8.96041200       0.51134794      -0.61922500      -0.56672378
S        2.13584700      11.71128300       9.29117900       0.36015784       1.25092474      -0.26480372
Na       6.92651700       4.14611300      -0.03388600      -0.11784092       0.04685173       0.21261837
Na       9.73534900       1.93854800       0.01482700       0.46403446       0.08812483       0.44238222
Na       5.50542200       5.97100700       3.74830200       0.30633779      -0.51086943      -0.23047829
Na      11.46537400       2.38352500       3.47171700       0.09773087      -0.06235061       0.22985366
P        7.62851100       1.90298700       6.16259000       1.63951122       0.12181855      -0.54543704
P       10.11841800       5.87831900       1.08715100      -1.48122453      -0.68828229       1.91704892
S       10.35340200       6.04897300       5.18016900       0.17025447       0.43723536       0.70086385
S        7.43088000       1.94196900       1.96454100       0.26409659      -0.74720410      -0.39146785
S        9.71223300       1.60716200       5.56808100      -0.96182179       0.34404462       0.34191066
S        6.96043900       3.75565100       5.48506200      -0.20254616      -1.06705951       0.24372738
S        8.24477100       5.61358900       1.94804500      -0.00793513       0.21299949      -0.54707366
S       11.30287300       4.35236200       1.60916800       0.11882654      -1.23955903       0.91286694
Na       8.17684500       5.42484900       7.11795100      -0.33740947       0.95740050      -0.15151021
Na      10.86255800       3.79580700       6.93820400       0.47736509      -0.04954854      -0.09549245
Na       6.94312700       7.54451600      10.74560000       0.26062328      -0.05390420       0.32313183
Na      13.29287000       3.87500900      11.05579000      -0.44092459       0.57323955      -0.66673129
P        8.89309200       3.94160600      13.57401400       1.10495484      -0.79213021      -0.88522118
P       11.13243500       7.58651700       8.33831500      -0.90431616      -0.86055639       0.24295288
S       11.45529800       7.87032600      13.10862100      -0.50263556      -0.30784576      -1.19958510
S        8.80270400       3.56169800       8.84103400       1.05001921       0.45701448       1.19573502
S       10.93700500       3.79214300      13.13174800      -0.34768093      -0.38625818      -0.19344724
S        8.28803200       5.79038300      13.03496100      -0.61966064      -0.44397054      -0.66109354
S        9.09294900       7.62142100       8.86902300       1.05107761      -0.30148669      -0.28365618
S       12.04433800       5.81362100       8.84365900      -0.40728098       0.13706500      -0.01509913
Na       3.99539800       9.85760100       0.26937500      -0.50051989      -0.10754459      -0.29334103
Na       6.67573200       7.65031900      -0.12888300       0.14791961       0.01194429       0.15828104
Na       2.42409000      11.42894900       3.56115900       0.34084358       0.33270372       0.38859358
Na       8.86011100       7.97243300       3.75252200      -0.26899196      -0.50244189      -0.48020517
P        4.44898900       7.71080200       6.20039900       2.99913437       1.05746517       1.31828052
P        6.98340400      11.52907300       1.09346600       0.79918352       1.02877033       0.74059333
S        7.21137200      11.85101100       5.44744700      -0.20882826      -0.67730152       0.05788654
S        4.29982400       7.62282200       1.98692400       0.85895190       0.55252113      -0.34170421
S        6.46880000       7.73629600       5.43523600      -0.83677249      -0.27950134       0.75989017
S        3.79582200       9.58419500       5.82941500      -0.94299116       0.03449586      -0.41325141
S        5.09410600      11.72831700       1.91083000       0.40748426      -0.09757688      -0.51940489
S        7.97320000       9.78904700       1.43182900      -0.43785105      -0.45972835       0.14321007
Na       4.92286400      11.64733300       7.27500600       0.05183701      -0.09166320       0.11000438
Na       7.97820200       9.43197400       7.30988600      -0.30981132       0.27536064      -0.46544300
Na       4.10472800      13.45341900      11.15588200      -0.13370619       0.22803263      -0.11039035
Na       9.82692500       9.62702600      10.93017400       0.19739592       0.01209058       0.02348004
P        5.78072700       9.70901600      13.33390000       0.47976522      -0.75728379       0.19592530
P        7.98363700      13.55378700       8.28427700       0.49801045       0.11223612       1.26750347
S        8.26490900      13.97392000      12.56996400       0.32871938      -0.98075762       1.21603483
S        5.72661600       9.29911000       9.03223700       0.13393146       0.08047120      -0.19624038
S        7.67968600       9.60360300      12.64349500       1.34233719       0.88172836      -0.08267698
S        4.67061100      11.32985200      12.86372600       0.21258775       0.61486404       0.34790482
S        5.97157900      13.71535000       8.86649200       1.01789755       0.07760929      -0.10685073
S        8.93670300      11.76774600       8.76656200      -0.75558776       0.23408852       0.77719594
96
Lattice="13.209155 0.0 0.0 -6.222081 11.65193 0.0 2.277646 3.798295 14.54923" Properties=species:S:1:pos:R:3:forces:R:3 energy=-812945.367666868 pbc="T T T"
Na       0.19916300       4.11408600      -0.24707100      -0.09493354      -0.55313137       0.11163363
Na       3.54092900       1.99507200       0.40119000      -0.10059773      -0.19284746      -0.60108214
Na      -0.90973800       5.58792200       3.49901500       0.30841065       0.16871103       0.56863784
Na       5.11748700       2.06551800       3.62571400       0.40594923      -0.07400822       0.18958249
P        1.12472800       1.85456200       6.04891800      -0.28012136       0.16867349       0.52323117
P        3.40252600       5.82023700       1.23468900      -1.62419391      -0.95142825      -1.72562792
S        3.54623900       6.03814000       5.41624300      -0.41992768       0.23781384       0.38265808
S        1.02232900       1.83407500       1.54210600      -0.10041547       0.17437757       0.82556776
S        3.17120300       1.83353800       5.61459800      -0.72655396      -0.45285083      -0.49965064
S        0.20241300       3.68020100       5.61628200       0.31602073      -0.63675812      -0.26688179
S        1.32978100       5.69210500       1.54756800       0.71678225       0.50981014       0.64516108
S        4.35457700       4.15107600       1.81925800       0.68050402      -0.55681943       0.44057871
Na       1.19241700       5.89120900       7.26294900       0.40074502      -0.68343654       0.43703868
Na       4.28966700       3.87848900       7.04541100       0.20987680       0.09786584       0.12121333
Na       0.31452000       8.06482200      10.49514400       0.06363625      -0.37668881       0.53917784
Na       6.81215500       3.92548300      10.92457700      -0.50767742      -0.01291438      -0.40650362
P        2.42741300       3.79926000      13.48596100       1.31587535      -0.09653591      -1.65377018
P        4.61333100       7.75463000       8.45734600       0.01690820      -0.08902776       0.58452922
S        4.88233000       7.80639300      12.96621200      -0.66350014      -0.24932440      -0.58553632
S        2.35325100       3.50146900       8.92015900      -0.66638271      -0.74279388       0.09921283
S        4.51855000       3.78019900      12.67234200      -1.80453433      -0.13918587       1.29658698
S        1.70231800       5.60108700      12.86248000      -0.80741093      -0.35815319      -0.20423781
S        2.68220500       7.82121100       9.08741200      -0.57452791      -0.36274327       0.16904335
S        5.35583000       5.94263000       9.08520700       0.13286723       0.22251691      -0.47022140
Na      -3.03943400       9.50517500      -0.43890600       0.49119301       0.46047641       0.25159790
Na       0.26464600       7.80236600       0.00869300       0.08762726       0.17890961      -0.10440859
Na      -4.11442300      11.74029400       3.55604900       0.27651594      -0.00186187       0.33832556
Na       1.62211700       7.95121500       3.85467700       0.34202070      -0.11104828      -0.24595054
P       -2.16984700       7.58029700       6.26550100      -0.02258100       0.38039533      -2.16529988
P        0.47752200      11.58543100       1.24355500       0.91270976      -0.22979143      -0.64700989
S        0.77348500      11.76957000       5.36723700       0.15603933       1.16066503       0.32572677
S       -2.01979000       7.53479000       1.78726900       1.27266390       1.66910304       0.56031466
S       -0.17432500       7.49488200       5.82198600      -0.13392129       0.10639379      -0.47225977
S       -2.95368200       9.32967600       5.66315800      -0.27276183       0.61717422      -0.09887044
S       -1.39353700      11.63617100       1.83709400      -1.76534315      -0.64226669       0.35282198
S        1.46372700       9.74854200       1.60713500      -0.11165543       1.01466689      -0.16182346
Na      -1.25568200      11.66670000       7.24091200      -0.58903982      -0.10355201      -0.38320748
Na       1.43147800       9.43845900       7.49502800      -0.35009482       0.61417821      -0.40586155
Na      -2.56775400      13.26144000      11.05249500       0.09240235       0.15955452      -0.53278942
Na       3.48452000       9.77537900      10.88185300      -0.00391598       0.05597867       0.24670614
P       -0.63182200       9.68364400      13.49412700      -0.08072219       1.44241667       0.01666925
P        1.34213200      13.62181200       8.31041500      -0.17110156      -0.49955315       0.52840447
S        1.69551800      13.96549400      12.63362900      -0.23180193      -1.83024713       0.50406760
S       -1.17614700       9.51760300       8.88218900      -0.47459357      -0.87455091       0.12297860
S        1.30328700       9.80054500      12.83748900      -0.37875862      -0.03026127      -0.05999439
S       -1.78111800      11.26712100      12.80328500       0.08751421      -0.52841384       0.18046592
S       -0.68366700      13.72616700       8.78775500       0.85311570       0.57218271      -0.07381814
S        2.05373700      11.85632200       9.04746700       0.48040490      -0.31872488      -0.07024899
Na       6.91072600       3.98740000       0.16028900      -0.22379350       0.00436963       0.07310570
Na       9.77779000       2.09458000      -0.31331300       0.35714034      -0.74518069       0.39563255
Na       5.84154100       5.63394800       3.72066000      -0.03232541       0.09684394      -0.20376755
Na      12.14514300       2.21504100       3.33354200      -0.05365710      -0.02908283       0.62828216
P        7.83584700       1.98417100       6.02805400       0.30016787      -2.01935404      -0.18188031
P       10.20127200       5.94548000       1.25849500      -1.13674617      -1.06889459      -0.97428450
S        9.91396200       6.02659200       5.66184200       0.17557490      -0.36373995      -0.27077813
S        7.56810400       1.65998800       1.86566900       0.86266294       0.02822783      -0.13651009
S        9.83738400       1.95105700       5.57765600      -0.42497781       0.13768057       0.15645446
S        6.79164400       3.62713900       5.53817900      -0.45479568       0.40045344      -0.54859403
S        8.24677100       6.22422100       1.71922000      -0.86707794      -0.43689711      -0.24859214
S       10.84826000       4.12922200       1.84546400       0.10883082      -0.33248220      -0.39369533
Na       7.65850600       5.53030000       7.30736100       0.07957260       0.07481643       0.36083034
Na      11.00468700       4.00375000       7.27474600       0.04699413      -0.18200562      -0.11465602
Na       6.81200200       7.34950000      10.83554000       0.01129419       0.34431623       0.45615544
Na      13.48404100       4.07281200      10.76085300       0.08026109      -0.08303002       0.14030954
P        8.86058600       3.87436600      13.46885300       1.32177075      -0.87402591      -0.25853460
P       11.05062900       7.74124500       8.36188900       0.85070522      -1.34088485       3.07457513
S       11.64292900       8.02546500      12.91945800      -0.40499675      -1.13371249      -0.46755886
S        8.70296600       3.51556700       9.02182000       0.10670831       0.24402160      -0.19722069
S       10.82759500       3.72006800      12.71546600       0.03021415       0.84214115       0.86341318
S        7.76819500       5.44188700      12.93552800       0.13261241       1.73582939       0.33269255
S        9.11130800       7.62064100       9.10298400       0.82805169      -0.38402298      -0.11275179
S       12.15348600       5.86531400       9.01175600      -0.86176127       2.03150535      -0.40906289
Na       3.97176400       9.60730000      -0.24542400      -0.48654088       0.14343138       0.04357708
Na       6.88978700       8.23131700       0.03400900       0.08928146      -0.81086560       0.10610466
Na       3.00987200      11.02237500       3.55028400      -0.02463413       0.52916426       0.02227658
Na       8.87699900       8.07132100       3.54014600       0.04714736       0.09102781       0.35915126
P        4.52233600       7.67276700       6.17944000      -0.35715947       0.34881812      -0.55001721
P        6.98847800      11.76407600       1.29575800       0.80372247      -0.62939132      -2.23488188
S        6.95041400      11.84271200       5.45547200       0.85192004       0.78088382      -0.01220964
S        4.27657300       7.46811900       1.78919500       0.91233184       1.65171190       0.81506430
S        6.49109000       7.42674800       5.73989900       0.41740651       0.78199746      -0.25634016
S        3.46219400       9.42916100       5.67380300       0.76019744      -0.74178058       0.31982428
S        4.98527100      11.88677900       1.58162300       0.14384031      -0.40940604       0.29437105
S        8.22219500      10.09818600       1.54559000      -0.69528727       0.15340827       0.86053420
Na       4.73667400      11.74360900       7.49163400      -0.13523102      -0.05471705      -0.14913948
Na       8.06452800       9.37682900       7.58439900      -0.43031112       0.66892429      -0.61648305
Na       4.08264200      13.48917400      10.99987200      -0.25388126      -0.26024626      -0.45949572
Na      10.05117300       9.10167800      11.18493700      -0.26606597       0.64680082      -0.18941676
P        5.76471000       9.55912900      13.41525100       0.11591113      -0.43893387       1.37008760
P        8.24197500      13.44365100       8.38033200      -0.45734737       0.70792516      -0.37377281
S        8.48682300      13.66021500      12.62223800      -0.11975192       1.43068815       0.74803801
S        5.56070500       9.47324700       9.16739600       0.29651212      -0.68257817      -0.62343945
S        7.69168200       9.38961500      12.91678400       1.13021450       0.45238514      -0.26005997
S        4.87555400      11.29343400      12.88933200      -0.34709291       0.35100164      -0.40709978
S        6.17520000      13.80344700       8.80103300       0.89014672      -0.57022748       0.52687654
S        9.18588500      11.68540700       8.85356600      -0.38047292       0.60014110       0.17600875
96
Lattice="13.209155 0.0 0.0 -6.222081 11.65193 0.0 2.277646 3.798295 14.54923" Properties=species:S:1:pos:R:3:forces:R:3 energy=-812945.918854565 pbc="T T T"
Na       0.37555700       3.65029000      -0.05322300      -0.37533187       0.14883914      -0.01152596
Na       3.37586000       2.24644500       0.23564800       0.05355218      -0.53228912      -0.39191431
Na      -0.80282300       5.57982300       3.65281600       0.37518966       0.24642299       0.22105974
Na       5.45389600       2.05600400       4.08056200      -0.37191813       0.48527152      -1.05074724
P        1.24907600       1.71191100       6.33228100      -1.86782339       1.45354105      -1.45645727
P        3.39449400       5.84661200       1.28677400       1.43900374       0.13295566      -0.39215995
S        3.63518500       6.28348100       5.34080900       0.25433756       0.07947671       0.04697857
S        1.11034900       1.72895100       1.73623100      -1.55595811      -1.45303354      -0.06527516
S        3.11973400       1.66871000       5.62758300       1.02056845       0.06505458       0.33905823
S        0.29847000       3.53696800       5.84982400       0.21586932      -0.41156284      -0.14484753
S        1.43828600       5.83222700       1.69713700      -0.54271207       0.09323597       0.32325390
S        4.47168500       4.10042600       1.77340200      -0.38160972       0.69085548       0.23060046
Na       1.32226500       5.79458600       7.78395800       0.09642440      -0.15527921      -0.61435852
Na       4.53069300       3.89061700       7.05556100       0.02734194       0.07955231       0.28941390
Na       0.14381200       7.48511600      10.91413500       0.01177486       0.05856093       0.02823028
Na       6.60121100       3.84468200      11.21230900      -0.28931684       0.40390079      -0.48435461
P        2.13557800       3.78300200      13.33162300       0.79333999       1.21880877       0.77986244
P        4.73226600       7.75667600       8.22769600       2.27185893       0.38938044       0.19873033
S        4.69619100       7.96035700      12.73835200       0.10024763       0.13587583       0.34366146
S        2.26547400       3.53058200       9.06843200       0.25274016      -0.41690649      -0.04487903
S        4.11366400       3.78448800      12.77610600      -0.30701933      -0.06960566       0.22475278
S        1.19240700       5.52855900      12.92502800      -0.18918974       0.85163368      -0.37238128
S        2.87548400       7.74976300       8.93243600      -1.11635738       0.31466145       0.19752015
S        5.75480500       6.01078700       8.73463800      -0.52980742       0.32879585      -0.16951753
Na      -2.78342900       9.50870700      -0.40462700      -0.38414760       0.18083535       0.30989527
Na       0.13580100       7.39788200      -0.39218600       0.33377398       0.29823601       0.37584033
Na      -3.79398700      11.50303800       3.70872700      -0.21670285      -0.13666547      -0.42175936
Na       2.27540200       8.18680600       3.79265800      -0.00264631      -0.23564878      -0.15569010
P       -2.00456500       7.69255100       5.92134200      -0.86075535       0.38890904       1.39723714
P        0.36526400      11.57151400       1.08844200      -0.64174264      -0.33879993       0.71606263
S        0.36486300      12.09489000       5.58849000      -0.02923339      -1.37516600       0.30761008
S       -2.06883300       7.19129500       1.32688400       0.18397659       0.43871750       1.38756048
S        0.00403300       7.66674700       5.68821500       0.10948463      -0.38043836      -0.81360520
S       -3.04485700       9.44326200       5.56880100       0.74129270      -0.33619005      -0.55007893
S       -1.60313400      11.63146100       1.61268800      -0.23920637      -0.21419357      -0.12908734
S        1.36462700       9.95111900       1.85232400      -0.26946074      -0.28011667      -0.75441397
Na      -1.73917500      11.58289500       7.50759100      -0.00826475       0.07192223       0.13140150
Na       1.42913800       9.72530600       6.97431100      -0.04346923       0.10297572       0.42707270
Na      -3.10092200      13.40958700      11.24792400       0.14108708      -0.10975889      -0.47228853
Na       3.45507100       9.75030200      10.84941800       0.20230542       0.00576838      -0.17967520
P       -0.80170200       9.47674100      13.45512700      -1.53631867      -0.19661360      -1.06654650
P        1.52844900      13.70848200       8.48723300      -0.43863522      -0.37570668       0.59489810
S        1.76946300      13.65177600      12.53478400      -0.64533098      -0.85686666       0.27065612
S       -0.79442800       9.19557200       8.87460200       0.14937742       0.69802910       0.09581507
S        1.09047700       9.50983300      12.61146800      -0.53427460      -0.42832890       0.40357511
S       -1.92885300      11.27551100      12.73286600       1.25661535      -0.95100492       1.13661511
S       -0.35955400      13.77605100       9.29454900      -0.09740741      -0.41487945      -0.80717447
S        2.56659600      11.98291300       8.89784800      -0.18788701      -0.18612600       0.42499760
Na       6.80175700       3.71560600       0.15817200      -0.28859656       0.19869804      -0.41609781
Na       9.78585100       1.88295500       0.03107600       0.01316511       0.06776722      -0.15466871
Na       5.92945700       5.69900200       3.47818200      -0.05231435       0.23007919       0.29497340
Na      12.01268200       1.94223900       3.79224100       0.28236388      -0.22859499       0.17705245
P        7.69501500       1.97135500       6.24649100       1.59673501       0.05614476       0.18300214
P       10.07556200       5.45371700       1.28566700      -0.58063353       1.34967931      -1.36744332
S       10.08457100       6.03449900       5.30179500       1.00875403       0.13560567       0.39230136
S        7.48224000       1.62045800       1.78813800       0.21036976       0.40748721      -0.29609680
S        9.70218900       1.82303600       5.81193100       0.08232475      -0.38687863      -0.39032406
S        7.14015000       3.75188500       5.57867100      -1.10092735       1.18795058      -0.43279564
S        8.01724300       5.77757300       1.51643400       1.07543489      -0.43569369       0.56741988
S       10.97937400       3.87745000       2.13617600      -0.43748758      -0.02747178      -0.77785470
Na       8.12199400       5.83962800       7.40517800      -0.24356773       0.41975924      -0.30434113
Na      10.87776200       3.97908100       7.20373100       0.26553594      -0.30819275      -0.15254749
Na       6.83361800       7.60889900      10.75476800       0.14770027       0.08845517       0.32938301
Na      12.87794200       4.21608300      10.82003900       0.26122462       0.13911926       0.45306718
P        8.80490900       3.63512200      13.33493100       1.36924084       1.96221901       0.42322187
P       11.18643100       7.68680700       8.28443200      -0.42882009       1.06541013      -0.67550180
S       11.20985400       7.85729500      12.77989600       0.86465125       0.26904294       0.17059393
S        8.71607300       3.76493900       8.99292600       0.48425022      -0.08114119       0.46051273
S       10.81480400       3.71318000      12.82733400      -0.17276556      -0.06406678       0.17433112
S        7.93558400       5.48606800      12.93226700      -0.06341836      -0.63825975      -0.01857582
S        9.32778700       7.91637300       9.05863600      -0.30484511      -0.13465528      -0.35947381
S       12.01858200       5.96278500       8.73805800       0.57477171      -1.63097731       0.72982866
Na       3.50396200       9.62905400      -0.04828500       0.03100725      -0.01301797       0.27099317
Na       6.97963100       7.81445200       0.08781100      -0.47736066      -0.02386445      -0.38714281
Na       2.72090800      11.67126400       3.35338700       0.18686631       0.11182942       0.75976594
Na       8.91641400       7.60976000       3.62749200      -0.13787801       0.47598816      -0.56059330
P        4.74622900       7.91186300       5.91129100       0.97095683       0.67530032       0.15604129
P        6.81608900      11.64361700       1.06789700       1.17565959       0.65821549       0.40257682
S        7.15949000      11.79455500       5.56106800       0.09560876       0.03480508       0.38559393
S        4.46081600       7.59163200       1.84632100      -0.60859254      -0.96275511      -0.33207128
S        6.80986100       8.05738000       5.30201900      -1.86785444      -0.52964019       0.71652128
S        3.80936400       9.78092600       5.65578800       0.13372865      -0.82394162      -0.45780867
S        4.80781900      11.66057100       1.59592400       0.96835038       0.18301044       0.10036785
S        7.80047400       9.92798300       1.57521800       0.15007548       0.20941041       0.30957011
Na       4.88323000      11.61022400       7.44841800       0.16268667       0.18192377      -0.01719173
Na       8.27152900       9.95734900       7.32718100      -0.59854334      -0.50842756       0.08057908
Na       4.01275700      13.41367700      10.98359900       0.11116213      -0.07207501      -0.42774438
Na      10.26560800       9.68229300      10.93654100      -0.23901706      -0.13133071      -0.23525939
P        5.67890400       9.61464200      13.51400400       2.74653940      -1.88249850      -0.20415314