0/geom.data (written by ASE) 

400 	 atoms 
3  atom types
0.0      21.734549581549103  xlo xhi
0.0      21.736551255846791  ylo yhi
0.0      22.148954072147919  zlo zhi


Masses 

1            6.94000000    # Li_atom 
2           30.97376199    # P_atom 
3           32.06499999    # S_atom 

Atoms 

     1   0   2   0.0       19.10109975048838      15.033098651634972      15.303852259959154
     2   0   3   0.0      17.936362036986967       16.61243496544224      14.897599413309743
     3   0   3   0.0      20.608595756780918      15.000786711911299      14.003135658478653
     4   0   3   0.0      19.830983699982088      15.413196902575407      17.216517405047455
     5   0   3   0.0      17.667136569515041      13.462425876647007      15.256846971410678
     6   0   2   0.0      2.7609087531952365      2.4639270427772866      11.145416752898246
     7   0   3   0.0      1.1211818896753194      3.3415796268040951      10.339041005160158
     8   0   3   0.0       4.436168849727868      2.7937397213239716      9.9988298150387021
     9   0   3   0.0       3.048036538607481      2.6349744764413834      13.137599627165629
    10   0   3   0.0      2.5774017975142551     0.41823499145424192      10.503823462034516
    11   0   2   0.0      8.0680664361866619      2.2242034932520625      2.2324724408294543
    12   0   3   0.0      6.9693664913888407      3.9860425889394597      2.2262422084741877
    13   0   3   0.0      8.4497699501113992      1.4443702279384985     0.42799973682112358
    14   0   3   0.0      9.8338759168248586      2.5978308197538369      3.1652101897019045
    15   0   3   0.0      7.1173154715978546     0.61388508625481053      3.0689569743112193
    16   0   2   0.0      13.710878406061259      2.0565207013296121      6.8057073883449615
    17   0   3   0.0      14.526075561956716        3.43819262120109      5.6034682029381226
    18   0   3   0.0       13.68585995832586     0.65200270927379278       5.152432012650169
    19   0   3   0.0      14.669014211156986      2.0166227664296672      8.6137715515054012
    20   0   3   0.0      11.704696733599292      2.5029013031653085      7.0727756494703788
    21   0   2   0.0      8.1485227523392734      15.099548033948127      15.530170172215289
    22   0   3   0.0      6.1964272702909806      14.733042427439365      16.079040994235797
    23   0   3   0.0      8.1572658971270773      15.889395315666572      13.488768524674299
    24   0   3   0.0      9.0958205732373241       16.35582783060401      16.969817217262467
    25   0   3   0.0      9.3607162194495306      13.496633553778292      15.532667297474102
    26   0   2   0.0       13.64111412080503      6.8237979176333692       15.43288609908446
    27   0   3   0.0      11.645241559988364      6.3706341837676463      15.785400630526103
    28   0   3   0.0      13.898968039575795      6.7740349781124554      13.361376512537154
    29   0   3   0.0       14.39471523918917      8.4983594555161552      16.256459455233767
    30   0   3   0.0      14.823195950754172       5.184378734561724       16.01784786207422
    31   0   2   0.0       8.102154638393543      19.704423825639683      15.656989523040927
    32   0   3   0.0      7.2270575147971776      21.417972981198758      16.241193432476411
    33   0   3   0.0      8.1404313776401729      19.348980755455379        13.7079675368329
    34   0   3   0.0      10.086458864021104      19.470997981168669      16.163979688212059
    35   0   3   0.0      6.7876094041530877      17.983547028627317      16.132149171784725
    36   0   2   0.0      13.504578116776766      10.697696286949371      11.156239647120396
    37   0   3   0.0      13.773759564377098      12.766428209132757      10.708582146089775
    38   0   3   0.0      13.504156271842927      9.9757850939633101       9.243962294432384
    39   0   3   0.0       15.20524721963551      10.250383602997376      12.222145332651206
    40   0   3   0.0      11.744820128753167      10.290216133401167      12.105594366157156
    41   0   2   0.0      13.553124094886604       19.51671030476518      2.1311553525883911
    42   0   3   0.0      11.597207342089263      19.835662834072039      1.5552334540763655
    43   0   3   0.0      14.863203749902004       20.65899027953818      1.1247054911433108
    44   0   3   0.0      13.674881970371031      20.201544178975048      4.1479138150506598
    45   0   3   0.0      14.054415627980399      17.485847637928401      2.0910384088356779
    46   0   2   0.0      8.2059076472305428      2.1246466479142327       19.88091558029101
    47   0   3   0.0      7.1845979372496229      1.7838878206449584        18.1254104721347
    48   0   3   0.0      9.6142632318214289     0.82991741947912989      20.627568711872893
    49   0   3   0.0      9.2932258409880415      3.8230297080318851      19.711130810952529
    50   0   3   0.0         6.7107515811253      2.3142965049796014       21.53351461304678
    51   0   2   0.0      2.6612145929042459      19.410051188200466      19.860628369864994
    52   0   3   0.0      2.3623418016055608      19.188063915313077      17.881494281359672
    53   0   3   0.0      2.2729260965401448        17.8216074253695      21.051128784543025
    54   0   3   0.0      4.5901941139555804      20.117094752061554      20.394196145205143
    55   0   3   0.0      1.3359169979266894      20.989104650930305      20.526981630615165
    56   0   2   0.0      19.024134552833893      15.141755137562516      2.2803458835267514
    57   0   3   0.0      17.706986269022455      16.592608970392266       1.210723974768158
    58   0   3   0.0      21.001581689394428      15.200980569419372      1.5041729127948915
    59   0   3   0.0      19.193611557715876        15.4685092436931      4.3025399989596087
    60   0   3   0.0      18.020218813061412      13.332833618644214      1.9889646788917108
    61   0   2   0.0      13.570745157074413      19.518334074806312       19.96877457280539
    62   0   3   0.0      15.198279649176792      20.741556625449935      20.094445448412674
    63   0   3   0.0      12.458856637344496      19.828114511102747      18.230404573508636
    64   0   3   0.0      14.140227490310735      17.491296819595675       20.03262185422955
    65   0   3   0.0      12.391952402932384      20.028988756014041      21.522932150867838
    66   0   2   0.0      18.849549170062073      15.157329067847423      19.953293529448263
    67   0   3   0.0      16.811007530282435      15.049830521535561      19.569366985902477
    68   0   3   0.0      20.484054262295523      14.091592611742652      18.600125193500496
    69   0   3   0.0      19.686922386702186      16.993134662448288      20.398343583029764
    70   0   3   0.0      19.372761359739844      14.702613767450284      21.827383021299056
    71   0   2   0.0      13.543025021579954      11.117044716913119      19.890294701656959
    72   0   3   0.0      11.533870495314295      11.245501205265411      20.210730087353834
    73   0   3   0.0       13.91663705971018      10.500592964742134      17.921240637882903
    74   0   3   0.0      14.745970964952063      12.625800128850763      20.459609573337708
    75   0   3   0.0       14.02380747983984       9.434685778500203      21.243156713408748
    76   0   2   0.0      19.068154669290372      19.835411159077847      19.891391430795821
    77   0   3   0.0      20.348567766064559      21.077802754453973      19.131959219470456
    78   0   3   0.0      19.502776867736763      18.104282369213607      18.798838596057088
    79   0   3   0.0      19.221675526761583      19.307794304995316      21.848083708134247
    80   0   3   0.0      17.046087739273734      19.851365080077318      19.622414629860273
    81   0   2   0.0      13.644445133284414      1.8614824617310481      2.3368530532484195
    82   0   3   0.0      13.537554020077954      3.8334848931163998      3.5644596189985664
    83   0   3   0.0      12.928401791263576      2.5957497461145458     0.32476764223061527
    84   0   3   0.0      15.441917474252651         1.2195684989927      2.5911175073111727
    85   0   3   0.0      12.057505175943316     0.76773804791588274      2.8086188745933933
    86   0   2   0.0      13.515784428576534      19.225510110475582      6.8250131363304671
    87   0   3   0.0       14.18423378538758      21.278206357557973      6.7223504080821117
    88   0   3   0.0      12.900072318134011      18.410325134417054      4.8963347946022937
    89   0   3   0.0       15.38434133486127      18.626842702068082      7.3811083491276426
    90   0   3   0.0      12.016453419118614      19.336746634790877      8.1181547433527239
    91   0   2   0.0       18.95851917870505      19.609054200697582      6.7945084107536786
    92   0   3   0.0      19.442189711753997      18.711963853519819      4.8793423179299076
    93   0   3   0.0      18.035387651425363      17.971963266047474      7.6334984043542908
    94   0   3   0.0      20.611392409542464      20.100830202494141      7.8133477185188314
    95   0   3   0.0      17.798913979885846      21.217825584864642      6.5374785338110728
    96   0   2   0.0      2.6752182096317871      2.3221061717196649      19.726766353630804
    97   0   3   0.0       2.329552668449927      1.4601839856104175      17.955424358360084
    98   0   3   0.0      1.3668751883660344      3.7181601379049991      20.371310075119737
    99   0   3   0.0      2.4480188101763627     0.65694703754507633      21.195243951038584
   100   0   3   0.0       4.566127085188608      2.9209467515699252       20.02764125070965
   101   0   2   0.0      2.7742849450231777      19.420190157480107      6.5041999952317511
   102   0   3   0.0      2.7003818906624137      20.264143355405508      4.6586452625589301
   103   0   3   0.0     0.82927178346547648      19.390650014632744      7.1988967924753782
   104   0   3   0.0      3.5997263892143923      17.539882126138192      6.5894561489887344
   105   0   3   0.0        3.93996653503266      20.701276000119794      7.7920148188733842
   106   0   2   0.0      8.1649805510929916       6.496779413054762      10.970561535300584
   107   0   3   0.0      7.9489559378477308      5.3390753616365592      9.2564838720945133
   108   0   3   0.0      9.2195562222125869      5.0681444220713416        12.1078315804673
   109   0   3   0.0      9.1824301754660844      8.3708545217028796      11.233682794050972
   110   0   3   0.0      6.1454245792851427      6.6868893534547196      11.568984699527141
   111   0   2   0.0      13.656620269603566      19.503615804184864      15.419010031469945
   112   0   3   0.0      14.873771789446851      20.038516494352251      13.872479953969838
   113   0   3   0.0      11.790917230991969      19.759534034894482      14.653803926413808
   114   0   3   0.0      13.911260042319096      17.503619947193911      16.102096543106246
   115   0   3   0.0      14.030688629151452      20.826093636778229      16.978146921337672
   116   0   2   0.0      19.040471898135316      10.862476281489901      11.147579414553235
   117   0   3   0.0      19.547444338027891      12.886315962486256      11.381726409747563
   118   0   3   0.0        17.9139530192293      10.661543239567516      9.4011241258217364
   119   0   3   0.0      20.659344812442662      9.5874227919102513      11.233249943338912
   120   0   3   0.0      17.741634389512949      10.341009381263257      12.640209546209423
   121   0   2   0.0      13.519936637507625      6.4174484472369073      19.984207110545761
   122   0   3   0.0      13.960877383615172      6.5824243164742571      18.070399120685856
   123   0   3   0.0      14.151197825886845      4.6894780286332649      20.834450521907325
   124   0   3   0.0      15.120532790937256       7.720526571612516        20.7760548690276
   125   0   3   0.0      11.559789055829068      6.7976215240944029      20.306195892878218
   126   0   2   0.0        8.25278598801704      19.461524101497549      10.712332146182085
   127   0   3   0.0      7.2710548161549227      20.967690602107968      9.7864515323362689
   128   0   3   0.0      7.3881854454094746      17.594022719654046      10.560225031622124
   129   0   3   0.0      10.292477105911997      19.444504059127489      10.849399864634716
   130   0   3   0.0      7.2236868934610596      20.410885246611233      12.351223348241756
   131   0   2   0.0      19.163835073877838      19.719348207451191      15.421260440354112
   132   0   3   0.0      17.216210200449545      18.592119988034693      15.558529979216324
   133   0   3   0.0      18.924846880226195      20.751106487428046      13.740817228812052
   134   0   3   0.0      18.852563586824445      20.745592585243021       17.09922665612136
   135   0   3   0.0      20.897027233241605       18.65497504235579       15.39092099535924
   136   0   2   0.0      19.009758035788806       10.70728701730193      19.919947390876693
   137   0   3   0.0      17.735858338797254      12.243462103463992      19.447751610967796
   138   0   3   0.0      19.966188096874344      10.116576244758553      18.203490508543002
   139   0   3   0.0      20.634769702679677      11.078217116286199       21.34584772077616
   140   0   3   0.0       17.75037857238457      9.3605915249610252      20.754713392610011
   141   0   2   0.0      8.1959204086117055      19.383441446623902      20.129617256298165
   142   0   3   0.0      6.1666235184585307      19.323404279834019      19.445916606871911
   143   0   3   0.0      9.2582688017264338      17.995030856032106      18.975942471689017
   144   0   3   0.0      8.8069656630790636      21.248024357885413      19.258201855333478
   145   0   3   0.0      8.3045083377998505      19.114577670601125      22.054835540638138
   146   0   2   0.0      13.595087579544685      15.359508803835372      11.080100173316184
   147   0   3   0.0       12.68286701141713      16.680986633184322       9.839996864578179
   148   0   3   0.0      15.554388875245955      14.710239448690642      10.243285198602933
   149   0   3   0.0      13.866570713731928      16.061924873700701      13.002518386521425
   150   0   3   0.0      12.061914846540732      13.689050223619709      11.350863187559469
   151   0   2   0.0       19.12154396001786       2.238791453047666      2.2937944081472104
   152   0   3   0.0      20.522822084474932       3.456297494726575      2.9726136292533236
   153   0   3   0.0      18.388288589411342      2.9285202417719449     0.48318742285628263
   154   0   3   0.0      19.896050508418782     0.38705029614964631      2.0371422278847238
   155   0   3   0.0      17.478386193277398      2.1247393061149502      3.5919188287780743
   156   0   2   0.0      2.7313851590463742        6.51393881405727      2.2194242328906832
   157   0   3   0.0      1.3723803041815072      7.6569847883262518      1.1160413430197853
   158   0   3   0.0      4.2886567118294234      6.0706307250773222      1.0092413823191966
   159   0   3   0.0      3.4793274407997923      7.5829970447757606      3.8571138269407799
   160   0   3   0.0      1.8988776915618875      4.8061824150160177      2.9386170360755091
   161   0   2   0.0      8.1553254201070082      2.0956616688210405       6.853268747580846
   162   0   3   0.0      6.2029719271953532      3.1083076461173444      6.9106288554527211
   163   0   3   0.0      7.7198553174682099     0.92093273913271434      5.2589249999378076
   164   0   3   0.0      9.7868412302974086      3.2018326379737139      6.1713341392953529
   165   0   3   0.0      8.4026230662558312      1.1182828659963542      8.5213861248015945
   166   0   2   0.0      19.024709166756793      19.686689701501589      2.1676764328259019
   167   0   3   0.0      17.197126647519536      20.316188900669474      1.6388681598320796
   168   0   3   0.0       20.81273174978325      19.812496509208813     0.98831104025903238
   169   0   3   0.0       19.74261256740893      20.569546207502224       3.975692246361886
   170   0   3   0.0      18.662528910603609       17.70687996543483      2.7174761724773604
   171   0   2   0.0      19.020215818293352      6.5464963297928396      2.2294719684533733
   172   0   3   0.0      18.515684541434698      5.7771078156075619     0.36794355588333472
   173   0   3   0.0      17.815958222234595      8.2038151901941774      2.6292308981615298
   174   0   3   0.0      18.630276538235545      5.1959538013869491      3.7809183372704722
   175   0   3   0.0      20.958043416020615      7.1847844865851487      2.2262423733631995
   176   0   2   0.0      8.0505921602481774      6.4257870316797812      15.482963646806169
   177   0   3   0.0      8.8942804036366869      8.4769016754686088      14.924455277759938
   178   0   3   0.0      6.6012465126589888       5.636302586677493      14.359196426801216
   179   0   3   0.0      9.5954599279162149      5.0562269789148768      15.624131484675926
   180   0   3   0.0      7.1875823199583193      6.9257582752132922      17.251421274401803
   181   0   2   0.0      13.508067252520023      1.9620256140922712      15.366818106751913
   182   0   3   0.0      12.782096840675701      2.6104363657603069      13.531813910272335
   183   0   3   0.0      15.202168316775646     0.97863068652919016      15.013122074480089
   184   0   3   0.0      14.263771504307879      3.4124840579732409      16.741671688413231
   185   0   3   0.0      12.066904470035244      1.2951290357129381      16.599703251353105
   186   0   2   0.0      13.506959910111526      2.0872026372822137      19.735604342394947
   187   0   3   0.0      13.958251732883147      3.9323611157400729      18.769312532363781
   188   0   3   0.0      14.764157117387313     0.74735536124688751       18.96212302326067
   189   0   3   0.0       14.63469867972554      2.1979525667184103      21.756475154314487
   190   0   3   0.0      11.564896824489933      1.7123941558584275      19.779835549614482
   191   0   2   0.0      2.6836590969093881      10.850847499564169      6.6419700473840058
   192   0   3   0.0      1.9436997966508462      10.657024142221289      4.7435134318987933
   193   0   3   0.0      1.4369783764963446      10.161023928048143      8.0718012077776606
   194   0   3   0.0      4.4702915977820705      9.7640455811918834      6.7781689766132951
   195   0   3   0.0      3.1055114301967159      12.908092436954165      6.9947144676087909
   196   0   2   0.0      19.068261520717083      2.1826283954841021      19.864341420821599
   197   0   3   0.0      18.490139167395633       1.532551730375014      18.000001364379155
   198   0   3   0.0      18.327880651066963     0.81102622359813814      21.192051225769859
   199   0   3   0.0      21.012955918267462      2.4448778227263754      20.116425173509914
   200   0   3   0.0      18.069550705775693      4.1114934829231897      20.111598432539008
   201   0   2   0.0      2.7166121494920383      19.279646856574299      11.231290910018478
   202   0   3   0.0      4.0491841022256159      19.650844094655273      9.6438709639222377
   203   0   3   0.0      1.0731387581528469        18.2927108004323      10.551308410613206
   204   0   3   0.0       3.828356227379377      18.628027386781088      12.778269611667792
   205   0   3   0.0      1.8481719533706544      21.173508340809953      12.105312650038368
   206   0   2   0.0      8.1131721835378112      6.7580880111704467      6.3812320493997516
   207   0   3   0.0      6.4956258253061794      7.7406193797019887      5.7420349214228983
   208   0   3   0.0      9.9433493155805461      6.8201449338544151      5.4726178933404288
   209   0   3   0.0      8.5421461430240484      7.2845506554304658      8.5234353872172424
   210   0   3   0.0      7.4487460105155776      4.8459472259016012      6.3130799503699553
   211   0   2   0.0      13.647632020575312       6.566572726939147      6.7437556072333651
   212   0   3   0.0      11.835336939632187      5.7850855655257352      7.4587403639220273
   213   0   3   0.0      13.315271039212934      6.9384402866400894      4.8210416661003102
   214   0   3   0.0      13.993936762734608      8.3028687095612419      7.6744520556681071
   215   0   3   0.0      15.368416347835817       5.436980311077841      6.9940842305881485
   216   0   2   0.0      19.014116962285232      10.897311992046216       6.582399559386868
   217   0   3   0.0       19.47318341022611      11.672601833096145      4.7633733322374212
   218   0   3   0.0      19.714927457333715       8.894104099943954      6.5743909998369041
   219   0   3   0.0      19.869996840591227      12.121822406395824      8.0412107970302031
   220   0   3   0.0      16.948913753071889      10.787510703002111      6.7551590400558315
   221   0   2   0.0      13.587528467337627      6.8386695746647019       2.288935748870494
   222   0   3   0.0      11.701198702337344      7.3994546913358681       3.077893780648874
   223   0   3   0.0      13.287373717177223      7.0102872511128256     0.37030707462881751
   224   0   3   0.0      15.494379353157289      7.3151169091233248      2.8704301479851337
   225   0   3   0.0      13.616728266724341      4.7570226819440737      1.8105188626931439
   226   0   2   0.0      19.080894032785402      6.4982728663641485      15.470202867090977
   227   0   3   0.0      19.536007390877703      6.5387846318390572      13.498797712601698
   228   0   3   0.0      17.201575972450417      5.5946759747122652      15.712404737604851
   229   0   3   0.0      20.406138842940919      5.4429664932005313      16.653851017956928
   230   0   3   0.0      18.884224811316788      8.4658179921911731      16.186923292409368
   231   0   2   0.0      8.1541982413340257      15.231737834564871      2.2464603222015693
   232   0   3   0.0      9.5354796576848049      15.245197063676741     0.67554486724603457
   233   0   3   0.0      6.6659533106109352      13.855746132536982      1.7952984655411552
   234   0   3   0.0       9.070394155370435      14.701829415507852      3.9985622251772859
   235   0   3   0.0      7.3017760603335731       17.07656902296689       2.481801891176346
   236   0   2   0.0      19.003810970282547      2.1994433345948314      11.070682897386821
   237   0   3   0.0      17.557750205798357      3.6431230099610792      10.489130628270958
   238   0   3   0.0      19.202279533187443     0.83298720236582835      9.5570661358312723
   239   0   3   0.0      20.770230812771072      3.1144549601547951      11.524502935702371
   240   0   3   0.0      18.266241411517242      1.2661171924576977      12.782683363024015
   241   0   2   0.0       8.138214585071287      10.990715657510094      6.6157781215302531
   242   0   3   0.0       9.998221829358469      11.924792571358871      6.7937408321577824
   243   0   3   0.0      7.3882970793398171       11.05945188554959      4.6903640868755092
   244   0   3   0.0      8.7574030898280757      9.1276241705022088       7.195185477615694
   245   0   3   0.0      6.8280463917125198      11.636524866801459      8.0932182089301801
   246   0   2   0.0        8.09216172835586      6.6156226746509539      20.032913537781749
   247   0   3   0.0      8.2268874478680551      8.6136177070620192      19.727862900544228
   248   0   3   0.0      8.9136654047062773      5.6551535850221812      18.294305996576124
   249   0   3   0.0      9.1959987761431883      6.0315061891859703      21.614159103769964
   250   0   3   0.0      6.1743237088702578      6.0155996437219788      20.218907490996742
   251   0   1   0.0      16.061740935616122      16.173221892285639       3.628935432717892
   252   0   1   0.0       11.61062261540717      3.9961781481020475      17.380334292951474
   253   0   1   0.0      13.458422147659951      12.577453631237375      14.860303136270337
   254   0   1   0.0      15.421738956148463      5.1650555603529433      4.1564071600545267
   255   0   1   0.0      6.1896892127719418      8.8401013119288692      8.8841138084984159
   256   0   1   0.0      16.914499160973492      18.194158456808516       11.42389156696963
   257   0   1   0.0      1.3890143479208066      20.573126711070959      9.2206956151219117
   258   0   1   0.0      4.4253871020588216      19.693249808057438      15.645513078886916
   259   0   1   0.0      8.9058886103647179      4.9808942115845483      3.9395160989425539
   260   0   1   0.0      19.033388396713093      6.9162988780135697      19.056554379579659
   261   0   1   0.0      12.301176042367146      7.0274422691929868      10.599036324410156
   262   0   1   0.0      5.4038762200031991      14.980410787413609      4.9975004637453528
   263   0   1   0.0      3.6526093239457573      10.161505338006462      15.099205316333093
   264   0   1   0.0      6.6867361809508621      3.8523543210671964      10.809816872764067
   265   0   1   0.0      17.200999567129372        16.8919274050543      17.776333413096289
   266   0   1   0.0      11.432074959756006      16.415134995793423      14.599319029149274
   267   0   1   0.0       6.722862962277671      13.655074507303128      21.604027283568858
   268   0   1   0.0      20.260363788031967      12.422943216455598      16.540480308509267
   269   0   1   0.0      13.199426470069705      12.316611964394131      2.1543853716297039
   270   0   1   0.0      16.711809520828016      7.2656735577805165      10.255230246631497
   271   0   1   0.0       6.061494683402926      18.655445810194987      7.9941365684739392
   272   0   1   0.0      18.839872306913364      2.9523435439081007      15.348715437851022
   273   0   1   0.0      3.2527525235431485     0.46055376613258592      6.1102356545328522
   274   0   1   0.0      9.1628811797893679       20.95431182473585      4.8457638952831283
   275   0   1   0.0      13.067771304453803      13.717217102456296       7.314011172070864
   276   0   1   0.0      11.726455783158109      9.4530996515106871      14.939813291391088
   277   0   1   0.0      4.6687968624774792      10.342990062024501     0.71331416409185089
   278   0   1   0.0      8.4298069524627053      12.322443596581552       11.69694987045667
   279   0   1   0.0      11.591879665924184      17.974515338669466      19.916750421673694
   280   0   1   0.0      4.4742673312989814      5.6855897875219119      6.0621428586331634
   281   0   1   0.0      12.197832635670423      2.4272149218736896      4.6878231775716728
   282   0   1   0.0      16.534792991732683      11.017440783861101      3.4467851286740148
   283   0   1   0.0       9.898472486385641       1.940284994860106      17.746571957822169
   284   0   1   0.0      4.6168605295025662      14.244297338629874      11.283904134764809
   285   0   1   0.0      16.895364676335479       7.742457656635934       5.652593927549745
   286   0   1   0.0      21.339550462861318      18.210909648842396      3.0799473107264452
   287   0   1   0.0      9.9566568671120272      3.3481320201707185      9.4950828234661149
   288   0   1   0.0      20.615240211555914       4.986712415130488      7.5726741596978151
   289   0   1   0.0      16.100823106066233      8.8687400636840596      18.534800613657591
   290   0   1   0.0      16.399072433192735      19.529435625770052      3.9335169928147611
   291   0   1   0.0      17.185856446567154        14.5967213474778       7.031279778922106
   292   0   1   0.0      14.581060089764529      14.171016776976584      17.049699333286998
   293   0   1   0.0      16.916066295176488      3.6992928448758358      17.613479694375521
   294   0   1   0.0      15.122414859610924      1.4939971027087906      11.644733636574584
   295   0   1   0.0      11.605471131039502      9.3254367456565461      6.2420458362998739
   296   0   1   0.0      3.0279544369760583      5.6993720826985763      16.714981987805228
   297   0   1   0.0      18.712775855991222      16.430045162382211      10.714815473204098
   298   0   1   0.0      16.222022198207057      12.073459891256475      10.595256369727036
   299   0   1   0.0      6.8596539341725844      15.597460673389879      7.3195935020105605
   300   0   1   0.0      20.749899103540731      11.177111255868672      14.387320632177587
   301   0   1   0.0      7.8222522122037939     0.54694874811244598      13.528649400289019
   302   0   1   0.0      5.5496343155507359      16.880361856993133      21.718239112938164
   303   0   1   0.0     0.72746392521344605      10.880575381259181      19.240403986171525
   304   0   1   0.0       10.47153295670357      17.380399853821508      2.9886412681390779
   305   0   1   0.0      16.443268595859767      8.2242790804130479      14.209286322224848
   306   0   1   0.0       16.93730075094178      17.285323060077985      21.238386616272642
   307   0   1   0.0      2.2724142189617025      6.1624986856994157      7.6150055052010996
   308   0   1   0.0      10.712227660049702      9.3382791619473853      17.664845803948296
   309   0   1   0.0      12.777014532873116      18.725401258322115      12.119184674511835
   310   0   1   0.0      16.518434889681654      1.4554289281645318      6.1514190810766731
   311   0   1   0.0      16.389397933835554      20.686885035631644      16.121222806790797
   312   0   1   0.0      6.6149798642356759      4.5034693947264444      17.714259948388662
   313   0   1   0.0      21.436288604763007      6.6786436964549187      20.702030334544865
   314   0   1   0.0      11.516109554496841      4.9852846001437694      4.7608891861699369
   315   0   1   0.0      13.496555628039729      13.705372198576542       4.687529917521406
   316   0   1   0.0      15.783557911411441      13.152800102658411       13.07611050967461
   317   0   1   0.0      2.2385924766236212      16.410100134535384       1.682853492966653
   318   0   1   0.0      6.6852464296468446       16.35007998677284      18.658967887224648
   319   0   1   0.0     0.37020151716282446      8.8676201149199017       14.91106756015335