LAMMPS (15 Sep 2022)
  using 1 OpenMP thread(s) per MPI task
# /home/carsten/Documents/PhD/LPS/MD_GAP/polarise/MD_GAP_CS.in (written by LAMMPScs 2.1 on Mon Jun 17 10:42:15 2019)

# ------------------------------ INITIALIZATION -------------------------------
units      metal
dimension  3
boundary   p p p
atom_style full
newton     on off
# ----------------------------- ATOM DEFINITION -------------------------------
read_data geom.data
Reading data file ...
  orthogonal box = (0 0 0) to (21.73455 21.736551 22.148954)
  3 by 4 by 6 MPI processor grid
  reading atoms ...
  400 atoms
Finding 1-2 1-3 1-4 neighbors ...
  special bond factors lj:    0        0        0       
  special bond factors coul:  0        0        0       
     0 = max # of 1-2 neighbors
     0 = max # of 1-3 neighbors
     0 = max # of 1-4 neighbors
     1 = max # of special neighbors
  special bonds CPU = 0.004 seconds
  read_data CPU = 0.029 seconds
timer timeout 24:00:00 every 100
New timer settings: style=normal  mode=nosync  timeout=00:00:00
# ------------------------------ ATOM GROUPING --------------------------------
group Li_atoms type 1
150 atoms in group Li_atoms
group P_atoms type 2
50 atoms in group P_atoms
group S_atoms type 3
200 atoms in group S_atoms

neighbor 2.0 bin
comm_modify vel yes

# ------------------------- GAP Potential ---------------------------


pair_style quip
pair_coeff      * * /u/thuss/templates/gaps/naps/gp_2b_soap.xml "IP GAP label=GAP_2023_2_8_0_13_56_52_159" 11 15 16

reset_timestep 0
# ------------------------ DEFINE COMPUTES --------------------------

compute thermo_press_lmp all pressure thermo_temp
compute ke_tech all ke
compute epot_tech all pe
compute vacf_p P_atoms vacf
compute vacf_s S_atoms vacf
compute msd_li Li_atoms msd com yes
variable etotal_tech equal c_ke_tech+c_epot_tech
variable temp_phys equal c_thermo_temp
variable ke_phys equal ke
variable etot_phys equal etotal
variable vol_v equal vol
variable T equal "500"

# ---------------------------------- TIMESTEP ------------------------------------
timestep 0.002

# ------------------------ RUNS ---------------------------
dump equiatoms all atom 500 geom.dump
dump_modify equiatoms scale no

thermo 100 # every 0.1
thermo_style custom step etotal pe ke temp press

fix therm_equ all nvt temp 300 600 1.0
run 50000
Neighbor list info ...
  update: every = 1 steps, delay = 0 steps, check = yes
  max neighbors/atom: 2000, page size: 100000
  master list distance cutoff = 8
  ghost atom cutoff = 8
  binsize = 4, bins = 6 6 6
  1 neighbor lists, perpetual/occasional/extra = 1 0 0
  (1) pair quip, perpetual
      attributes: full, newton on
      pair build: full/bin
      stencil: full/bin/3d
      bin: standard
Per MPI rank memory allocation (min/avg/max) = 8.036 | 8.036 | 8.036 Mbytes
   Step         TotEng         PotEng         KinEng          Temp          Press     
         0  -3305335       -3305335        0              0              69849.539    
       100  -3305352.1     -3305473.3      121.21138      2350.2057      21074.616    
       200  -3305379.2     -3305497.4      118.21868      2292.1792      17816.209    
       300  -3305406.8     -3305509.8      102.95859      1996.2965      10469.757    
       400  -3305431.2     -3305520.6      89.343697      1732.3131      9761.1868    
       500  -3305453.5     -3305532.8      79.321678      1537.993       3364.8519    
       600  -3305473.1     -3305544.2      71.104375      1378.6651     -242.38286    
       700  -3305489.6     -3305549.9      60.330438      1169.7659     -662.87475    
       800  -3305504       -3305559.1      55.137214      1069.0728     -3051.6486    
       900  -3305517.1     -3305571        53.916364      1045.4014      3569.4932    
      1000  -3305528.7     -3305575.7      46.954569      910.41693     -3448.4681    
      1100  -3305538.5     -3305580.5      41.945996      813.30413     -3847.7958    
      1200  -3305547.1     -3305586.3      39.119776      758.50566     -4754.6597    
      1300  -3305554.4     -3305590        35.588226      690.03133     -4762.7754    
      1400  -3305561       -3305591.8      30.787027      596.93936     -5121.4412    
      1500  -3305567       -3305598.4      31.360741      608.06329     -1880.6549    
      1600  -3305572.4     -3305600.8      28.464332      551.9039      -9107.6366    
      1700  -3305577.1     -3305602.8      25.708187      498.46413     -3359.1255    
      1800  -3305581.2     -3305605.5      24.301531      471.19004     -8408.0037    
      1900  -3305584.8     -3305607.6      22.794764      441.97486     -5403.7659    
      2000  -3305588.1     -3305610.4      22.350272      433.35646     -4850.5062    
      2100  -3305591       -3305611.1      20.105278      389.82757     -7044.7095    
      2200  -3305593.5     -3305612.7      19.218115      372.62608     -6065.9927    
      2300  -3305595.9     -3305615.1      19.263239      373.50101     -5235.0187    
      2400  -3305597.9     -3305615.6      17.689208      342.98162     -5568.2663    
      2500  -3305599.7     -3305616.9      17.130489      332.14844     -5086.2761    
      2600  -3305601.4     -3305617.4      16.039936      311.00338     -5232.1835    
      2700  -3305602.8     -3305619.2      16.40546       318.09063     -2882.1462    
      2800  -3305604       -3305619.1      15.126104      293.28479     -4703.9676    
      2900  -3305605       -3305619.9      14.876374      288.4427      -3996.6337    
      3000  -3305605.9     -3305621.1      15.203648      294.78832     -4274.7007    
      3100  -3305606.6     -3305621        14.320287      277.66055     -5964.2235    
      3200  -3305607.2     -3305622        14.791125      286.78979     -6380.4076    
      3300  -3305607.7     -3305622.5      14.747049      285.93518     -5010.7928    
      3400  -3305608.1     -3305622.5      14.489367      280.93891     -5360.3773    
      3500  -3305608.3     -3305623.4      15.089261      292.57043     -4119.292     
      3600  -3305608.4     -3305622.8      14.440496      279.99132     -3732.6295    
      3700  -3305608.4     -3305622.6      14.240504      276.11363     -5155.4561    
      3800  -3305608.2     -3305623.2      14.942828      289.73121     -4254.2429    
      3900  -3305608       -3305623.9      15.9234        308.74382     -5612.7173    
      4000  -3305607.6     -3305623        15.470873      299.96963     -3909.6974    
      4100  -3305607.1     -3305622.6      15.556253      301.62509     -5933.9737    
      4200  -3305606.5     -3305623        16.474485      319.42898     -4436.2054    
      4300  -3305605.8     -3305623.2      17.393246      337.24312     -4994.5921    
      4400  -3305605.2     -3305622.9      17.710914      343.40249     -3228.672     
      4500  -3305604.6     -3305622.1      17.524035      339.77904     -5262.9344    
      4600  -3305604       -3305620.4      16.337594      316.77476     -6696.4492    
      4700  -3305603.5     -3305620.4      16.950456      328.65773     -3168.4545    
      4800  -3305603       -3305621.4      18.326341      355.33519     -6410.1107    
      4900  -3305602.7     -3305620.4      17.73733       343.91468     -5295.6725    
      5000  -3305602.4     -3305621        18.612783      360.88912     -5642.0864    
      5100  -3305602.2     -3305621.1      18.909722      366.64656     -7224.4178    
      5200  -3305602.2     -3305620.5      18.35211       355.83483     -4593.3088    
      5300  -3305602.2     -3305620.2      17.94341       347.91043     -3073.5131    
      5400  -3305602.4     -3305621.7      19.323656      374.67244     -4929.321     
      5500  -3305602.7     -3305621.1      18.447111      357.67684     -4025.4681    
      5600  -3305603.1     -3305622        18.896007      366.38064     -4621.9501    
      5700  -3305603.5     -3305622.1      18.53451       359.37145     -6010.818     
      5800  -3305604.1     -3305621.2      17.181531      333.13812     -3252.2941    
      5900  -3305604.6     -3305621.7      17.08566       331.27924     -5889.1839    
      6000  -3305605.2     -3305623.4      18.190005      352.69173     -7785.2481    
      6100  -3305605.8     -3305623.1      17.316592      335.75685     -7035.86      
      6200  -3305606.3     -3305622.7      16.420765      318.38739     -5761.3293    
      6300  -3305606.8     -3305624.5      17.640836      342.04372     -6524.0219    
      6400  -3305607.3     -3305623.6      16.342296      316.86593     -5732.2965    
      6500  -3305607.6     -3305624        16.364903      317.30425     -4891.0682    
      6600  -3305608       -3305624.9      16.94862       328.62213     -5665.4169    
      6700  -3305608.2     -3305624.9      16.715998      324.11176     -5373.5897    
      6800  -3305608.3     -3305625        16.667628      323.17388     -7698.6867    
      6900  -3305608.4     -3305624        15.631353      303.08122     -3551.8237    
      7000  -3305608.3     -3305624.9      16.566265      321.20852     -7792.0473    
      7100  -3305608.2     -3305624.6      16.394163      317.87159     -7771.0133    
      7200  -3305607.9     -3305625.4      17.462081      338.57778     -6968.7716    
      7300  -3305607.6     -3305623.9      16.315409      316.3446      -8198.2187    
      7400  -3305607.2     -3305624.6      17.399063      337.3559      -4264.8523    
      7500  -3305606.7     -3305622.6      15.931985      308.91028     -5934.3997    
      7600  -3305606.1     -3305623.2      17.036115      330.31859     -4441.7869    
      7700  -3305605.5     -3305623.4      17.839897      345.90338     -6577.1681    
      7800  -3305604.9     -3305622        17.095103      331.46233     -5369.3667    
      7900  -3305604.2     -3305622.4      18.198878      352.86377     -6464.4416    
      8000  -3305603.6     -3305622.2      18.543029      359.53663     -5366.3082    
      8100  -3305603       -3305621.2      18.1808        352.51325     -2542.0599    
      8200  -3305602.5     -3305621.6      19.123588      370.79328     -7367.274     
      8300  -3305602       -3305622.3      20.223922      392.128       -6608.1564    
      8400  -3305601.7     -3305620.8      19.107994      370.49091     -5604.6236    
      8500  -3305601.5     -3305620.4      18.851834      365.52414     -4726.7807    
      8600  -3305601.4     -3305622        20.557751      398.6007      -5776.9775    
      8700  -3305601.5     -3305621.1      19.631665      380.64454     -4616.5403    
      8800  -3305601.6     -3305620.6      18.981537      368.03901     -6508.5517    
      8900  -3305601.9     -3305622.3      20.381994      395.1929      -4387.6605    
      9000  -3305602.3     -3305620.8      18.550345      359.67847     -4547.2783    
      9100  -3305602.8     -3305622.2      19.423463      376.60765     -3573.918     
      9200  -3305603.4     -3305622.4      19.094523      370.22972     -5898.0369    
      9300  -3305604       -3305623        19.066655      369.68938     -4790.2444    
      9400  -3305604.6     -3305622.6      18.00945       349.1909      -4932.407     
      9500  -3305605.3     -3305624        18.704035      362.65843     -7433.9596    
      9600  -3305605.8     -3305622.7      16.889566      327.47712     -4444.2125    
      9700  -3305606.3     -3305625.1      18.70293       362.63699     -5278.5828    
      9800  -3305606.8     -3305624.1      17.337789      336.16785     -4840.4414    
      9900  -3305607.1     -3305624.1      16.975993      329.15288     -4214.8824    
     10000  -3305607.4     -3305623.8      16.365205      317.31012     -7606.1102    
     10100  -3305607.5     -3305625.3      17.806232      345.25064     -6702.0492    
     10200  -3305607.5     -3305624.5      16.9471        328.59265     -5584.0186    
     10300  -3305607.4     -3305625.3      17.802705      345.18226     -4821.197     
     10400  -3305607.3     -3305624.2      16.970485      329.04607     -7030.8398    
     10500  -3305606.9     -3305624.1      17.193297      333.36625     -6206.679     
     10600  -3305606.5     -3305624.4      17.822392      345.56398     -5112.4123    
     10700  -3305606       -3305624.4      18.425482      357.25747     -5565.1125    
     10800  -3305605.4     -3305623.4      17.914684      347.35345     -6951.3161    
     10900  -3305604.8     -3305622.2      17.459345      338.52473     -5278.4945    
     11000  -3305604.1     -3305623.4      19.317279      374.5488      -3917.6202    
     11100  -3305603.4     -3305622.2      18.859302      365.66895     -5127.9137    
     11200  -3305602.6     -3305621.8      19.121576      370.75426     -4995.9865    
     11300  -3305601.9     -3305622.1      20.176906      391.21639     -5426.8402    
     11400  -3305601.3     -3305621.7      20.36073       394.7806      -7379.7081    
     11500  -3305600.7     -3305621.3      20.558942      398.62379     -3083.6792    
     11600  -3305600.2     -3305620.6      20.376954      395.09518     -5018.1013    
     11700  -3305599.9     -3305620.9      20.995386      407.08614     -4962.2147    
     11800  -3305599.7     -3305621.4      21.720398      421.14364     -3365.5451    
     11900  -3305599.7     -3305620.3      20.608594      399.58651     -2890.0592    
     12000  -3305599.8     -3305621.6      21.796204      422.61347     -6780.5179    
     12100  -3305600.1     -3305620.5      20.453209      396.57371     -5338.9269    
     12200  -3305600.4     -3305621.2      20.778999      402.89055     -6804.9957    
     12300  -3305600.9     -3305622.1      21.222126      411.48249     -5646.1099    
     12400  -3305601.4     -3305622.3      20.904368      405.32137     -5394.608     
     12500  -3305602       -3305620.3      18.326377      355.3359      -5418.2109    
     12600  -3305602.6     -3305621.3      18.697688      362.53535     -2946.8252    
     12700  -3305603.2     -3305622.4      19.243967      373.12733     -8048.4828    
     12800  -3305603.8     -3305623.1      19.376608      375.69916     -6487.4695    
     12900  -3305604.3     -3305622.7      18.416247      357.07841     -7410.2445    
     13000  -3305604.7     -3305622.8      18.080804      350.5744      -6229.4883    
     13100  -3305605       -3305622.1      17.090921      331.38126     -8293.005     
     13200  -3305605.2     -3305623.4      18.156902      352.0499      -5749.2552    
     13300  -3305605.3     -3305623.3      18.005701      349.11821     -4661.7484    
     13400  -3305605.3     -3305623.3      18.050249      349.98197     -7714.6985    
     13500  -3305605.1     -3305623.5      18.40286       356.81885     -4663.6964    
     13600  -3305604.9     -3305623.4      18.51445       358.9825      -6789.9582    
     13700  -3305604.6     -3305624.3      19.688124      381.73923     -7738.064     
     13800  -3305604.2     -3305623.6      19.406542      376.27955     -4637.5349    
     13900  -3305603.8     -3305623.3      19.417272      376.4876      -5334.8186    
     14000  -3305603.4     -3305622.8      19.358948      375.35674     -7543.8862    
     14100  -3305603       -3305624        21.011452      407.39767     -2917.0042    
     14200  -3305602.6     -3305623.3      20.659878      400.58088     -6694.2508    
     14300  -3305602.2     -3305621.6      19.44332       376.99265     -5298.1847    
     14400  -3305601.8     -3305620.3      18.468432      358.09024     -3961.1831    
     14500  -3305601.5     -3305621.5      20.041446      388.58991     -7521.4205    
     14600  -3305601.1     -3305621.1      19.916958      386.17618     -4460.7147    
     14700  -3305600.9     -3305621.9      21.003472      407.24293     -4354.1661    
     14800  -3305600.7     -3305622        21.270105      412.41276     -3373.8573    
     14900  -3305600.7     -3305621.9      21.239385      411.81713     -6377.4151    
     15000  -3305600.7     -3305621.3      20.541884      398.29307     -2997.6298    
     15100  -3305600.9     -3305622.1      21.231505      411.66433     -5823.6728    
     15200  -3305601.1     -3305621.5      20.455599      396.62004     -5021.1203    
     15300  -3305601.3     -3305623.9      22.594317      438.08833     -4456.1452    
     15400  -3305601.6     -3305622.3      20.699642      401.35187     -5570.3303    
     15500  -3305601.9     -3305622.5      20.569071      398.82019     -3694.9984    
     15600  -3305602.3     -3305622.7      20.426257      396.05114     -6938.7341    
     15700  -3305602.6     -3305622.4      19.725384      382.46169     -5135.9873    
     15800  -3305603       -3305624.2      21.198513      411.02464     -4357.166     
     15900  -3305603.4     -3305623        19.648933      380.97936     -6758.6087    
     16000  -3305603.7     -3305623.7      20.053516      388.82394     -1715.3324    
     16100  -3305603.9     -3305623        19.040567      369.18356     -2974.5907    
     16200  -3305604.1     -3305623.4      19.264949      373.53417     -5440.2507    
     16300  -3305604.2     -3305624.6      20.393394      395.41394     -4410.2271    
     16400  -3305604.2     -3305623.2      18.968683      367.78976     -5122.1446    
     16500  -3305604.2     -3305624        19.87096       385.2843      -5477.5494    
     16600  -3305604       -3305624        20.021082      388.19507     -5984.8191    
     16700  -3305603.7     -3305623.8      20.125446      390.2186      -7200.2691    
     16800  -3305603.4     -3305623        19.525472      378.58553     -5024.6997    
     16900  -3305603.1     -3305622.5      19.417817      376.49816     -7630.6692    
     17000  -3305602.7     -3305623.2      20.500525      397.49114     -5163.9151    
     17100  -3305602.2     -3305622.6      20.370191      394.96406     -7064.498     
     17200  -3305601.7     -3305622.5      20.777277      402.85717     -6245.5541    
     17300  -3305601.2     -3305621.4      20.197673      391.61904     -7447.0996    
     17400  -3305600.7     -3305621.5      20.800082      403.29934     -3685.271     
     17500  -3305600.1     -3305621.6      21.478899      416.46114     -5871.4456    
     17600  -3305599.6     -3305621.6      21.970538      425.99368     -4287.252     
     17700  -3305599.1     -3305621.4      22.312018      432.61474     -7224.9383    
     17800  -3305598.7     -3305621.3      22.619966      438.58565     -5564.7427    
     17900  -3305598.4     -3305621.1      22.754393      441.1921      -6250.9055    
     18000  -3305598.1     -3305620.9      22.801632      442.10802     -6654.039     
     18100  -3305598       -3305620.6      22.565681      437.5331      -5530.1221    
     18200  -3305598       -3305620        21.928381      425.17629     -5546.2177    
     18300  -3305598.1     -3305619.7      21.597229      418.75548     -3016.4291    
     18400  -3305598.4     -3305620.7      22.336131      433.08227     -6342.3479    
     18500  -3305598.7     -3305620        21.330246      413.57887     -4190.0237    
     18600  -3305599.1     -3305619.8      20.719779      401.74233     -5831.4259    
     18700  -3305599.6     -3305620.2      20.605087      399.51851     -8395.4457    
     18800  -3305600       -3305621.7      21.700127      420.7506      -7628.5774    
     18900  -3305600.5     -3305621.8      21.324942      413.47601     -4381.859     
     19000  -3305600.9     -3305621.7      20.787253      403.05059     -5972.2006    
     19100  -3305601.3     -3305622        20.667909      400.73659     -4920.4402    
     19200  -3305601.7     -3305622.4      20.684404      401.05642     -7302.9489    
     19300  -3305602       -3305622.9      20.907026      405.37291     -5028.3463    
     19400  -3305602.3     -3305623.3      21.039496      407.94142     -4931.945     
     19500  -3305602.4     -3305622.2      19.740058      382.74621     -7406.0459    
     19600  -3305602.5     -3305622.6      20.107956      389.87949     -6477.5483    
     19700  -3305602.5     -3305622.8      20.345621      394.48766     -5783.7794    
     19800  -3305602.3     -3305622.8      20.491416      397.31452     -9142.823     
     19900  -3305602.1     -3305621.7      19.555166      379.16127     -6174.8889    
     20000  -3305601.8     -3305622.6      20.810319      403.49783     -7963.2025    
     20100  -3305601.3     -3305621.8      20.511532      397.70455     -6394.861     
     20200  -3305600.8     -3305622        21.205171      411.15373     -6569.6896    
     20300  -3305600.3     -3305622.2      21.906581      424.7536      -5068.4634    
     20400  -3305599.7     -3305621.7      22.06064       427.7407      -5963.5539    
     20500  -3305599.1     -3305620.2      21.105601      409.22315     -6414.4901    
     20600  -3305598.4     -3305621.3      22.937438      444.74121     -5932.2431    
     20700  -3305597.8     -3305620.8      23.017039      446.28461     -6318.9989    
     20800  -3305597.2     -3305620        22.828212      442.62339     -6668.8399    
     20900  -3305596.7     -3305619        22.258071      431.56875     -6658.8373    
     21000  -3305596.3     -3305619.1      22.835367      442.76213     -4414.2536    
     21100  -3305596       -3305620.5      24.546234      475.93466     -5028.1785    
     21200  -3305595.8     -3305619.1      23.341958      452.58457     -4226.4021    
     21300  -3305595.7     -3305619.5      23.797399      461.41527     -6133.6784    
     21400  -3305595.8     -3305618.9      23.1394        448.65711     -8241.9055    
     21500  -3305595.9     -3305619.2      23.281357      451.40957     -4950.9191    
     21600  -3305596.1     -3305618.8      22.638335      438.94181     -6798.9793    
     21700  -3305596.5     -3305619.5      23.008721      446.12333     -5683.4722    
     21800  -3305596.9     -3305619.5      22.649689      439.16196     -7171.0859    
     21900  -3305597.3     -3305619.1      21.823882      423.15012     -3578.1427    
     22000  -3305597.8     -3305620.5      22.720677      440.53836     -3279.1731    
     22100  -3305598.2     -3305621.5      23.259412      450.98406     -5553.3364    
     22200  -3305598.6     -3305619.8      21.159197      410.26234     -5597.2668    
     22300  -3305599       -3305620.2      21.156211      410.20443     -6874.7916    
     22400  -3305599.3     -3305620.8      21.479173      416.46644     -5786.5419    
     22500  -3305599.6     -3305621.9      22.234549      431.11267     -7130.965     
     22600  -3305599.9     -3305621.8      21.936607      425.33578     -5679.8788    
     22700  -3305600       -3305621.3      21.257647      412.17122     -7012.8624    
     22800  -3305600.1     -3305620.2      20.109799      389.91523     -5582.4811    
     22900  -3305600       -3305622.5      22.503623      436.32984     -6654.1687    
     23000  -3305599.8     -3305622        22.213945      430.71317     -4631.3917    
     23100  -3305599.6     -3305620.8      21.264397      412.30209     -3199.497     
     23200  -3305599.2     -3305620.6      21.317452      413.33079     -6817.2154    
     23300  -3305598.9     -3305621        22.123405      428.95766     -7686.259     
     23400  -3305598.5     -3305620.8      22.33618       433.08323     -4960.8492    
     23500  -3305598       -3305620.9      22.920259      444.40813     -7214.6173    
     23600  -3305597.4     -3305619.9      22.462338      435.52934     -5754.0941    
     23700  -3305596.9     -3305618.7      21.828618      423.24194     -5282.6893    
     23800  -3305596.4     -3305619.3      22.932071      444.63715     -2799.1107    
     23900  -3305595.8     -3305619.7      23.845345      462.3449      -7246.531     
     24000  -3305595.3     -3305618        22.708383      440.29999     -3600.7327    
     24100  -3305594.8     -3305618.2      23.399376      453.69788     -7016.3429    
     24200  -3305594.4     -3305619.5      25.031427      485.34223     -5089.3617    
     24300  -3305594.1     -3305617.9      23.850668      462.4481      -3542.9281    
     24400  -3305593.9     -3305619.4      25.501076      494.4484      -2449.8224    
     24500  -3305593.8     -3305617.6      23.815554      461.76727     -6203.2449    
     24600  -3305593.9     -3305618        24.171392      468.66673     -4902.7976    
     24700  -3305594       -3305617.7      23.729481      460.09839     -3333.5509    
     24800  -3305594.3     -3305619.5      25.178302      488.19002     -3706.178     
     24900  -3305594.7     -3305618.7      23.963821      464.64207     -5060.2079    
     25000  -3305595.1     -3305618.7      23.614657      457.87203     -4374.3101    
     25100  -3305595.6     -3305618.9      23.292288      451.6215      -2828.5663    
     25200  -3305596.2     -3305620.4      24.19413       469.1076      -4317.7944    
     25300  -3305596.7     -3305619        22.312243      432.61911     -4603.8101    
     25400  -3305597.2     -3305620.9      23.646619      458.49174     -5535.3893    
     25500  -3305597.7     -3305620.1      22.436337      435.0252      -5618.4517    
     25600  -3305598.1     -3305620.4      22.277644      431.94825     -6468.8342    
     25700  -3305598.4     -3305621.5      23.175259      449.35239     -5222.7032    
     25800  -3305598.6     -3305620        21.458294      416.06162     -5586.7771    
     25900  -3305598.7     -3305621.7      23.016741      446.27885     -4604.667     
     26000  -3305598.7     -3305621.2      22.495963      436.18132     -6174.0672    
     26100  -3305598.7     -3305620.3      21.64698       419.72012     -4298.1132    
     26200  -3305598.6     -3305622.1      23.514951      455.9388      -6024.9861    
     26300  -3305598.3     -3305620.8      22.487442      436.0161      -2920.0346    
     26400  -3305598       -3305620.1      22.089095      428.29241     -4792.9431    
     26500  -3305597.6     -3305621.6      23.972384      464.80811     -4420.5669    
     26600  -3305597.2     -3305619.6      22.417292      434.65594     -3342.1926    
     26700  -3305596.7     -3305621.3      24.542142      475.85532     -3213.198     
     26800  -3305596.3     -3305619.5      23.223449      450.28677     -4788.9163    
     26900  -3305595.8     -3305620.9      25.110331      486.87212     -5851.0783    
     27000  -3305595.4     -3305620        24.579612      476.58184     -3740.9274    
     27100  -3305595       -3305619.4      24.422804      473.54144     -3555.5067    
     27200  -3305594.5     -3305618.6      24.043748      466.19181     -2112.8271    
     27300  -3305594.2     -3305619.6      25.470147      493.84871     -2437.0041    
     27400  -3305593.9     -3305619.2      25.287632      490.30986     -4617.0915    
     27500  -3305593.7     -3305617.9      24.257905      470.34416     -3338.5361    
     27600  -3305593.6     -3305619.1      25.524884      494.91001     -2497.5935    
     27700  -3305593.5     -3305618        24.505727      475.14926     -3170.701     
     27800  -3305593.5     -3305618.2      24.662148      478.18215     -4215.5895    
     27900  -3305593.6     -3305618.9      25.350365      491.52621     -1108.2223    
     28000  -3305593.7     -3305618        24.280681      470.78578     -5925.6408    
     28100  -3305593.9     -3305618.2      24.319986      471.54787     -2510.4739    
     28200  -3305594.1     -3305619.6      25.545294      495.30575     -2866.5694    
     28300  -3305594.3     -3305618.3      23.962984      464.62585     -5469.3029    
     28400  -3305594.6     -3305618.7      24.117142      467.61487     -1026.7876    
     28500  -3305594.8     -3305618.9      24.096999      467.22431     -5649.9801    
     28600  -3305595       -3305619.5      24.462256      474.30638     -3307.6146    
     28700  -3305595.3     -3305619.7      24.460612      474.2745      -5874.2149    
     28800  -3305595.5     -3305620.4      24.985673      484.45508     -4379.0139    
     28900  -3305595.6     -3305620.1      24.514023      475.31011     -4986.3262    
     29000  -3305595.6     -3305619.1      23.436369      454.41513     -4265.1041    
     29100  -3305595.6     -3305619.1      23.491837      455.49063     -4566.8788    
     29200  -3305595.5     -3305620.4      24.968448      484.1211      -2314.3564    
     29300  -3305595.3     -3305618.3      23.031619      446.56732     -2846.4174    
     29400  -3305595.1     -3305619        23.890958      463.22931     -1831.2339    
     29500  -3305594.8     -3305618.1      23.269804      451.18555     -3820.761     
     29600  -3305594.6     -3305619.9      25.310907      490.76115     -2721.1155    
     29700  -3305594.3     -3305619.5      25.263977      489.85121     -2276.4182    
     29800  -3305594       -3305618.3      24.250752      470.20547     -3715.4932    
     29900  -3305593.8     -3305618.4      24.578098      476.55248      1652.4907    
     30000  -3305593.6     -3305616.8      23.191257      449.66258     -1827.6284    
     30100  -3305593.4     -3305617.6      24.26252       470.43363     -3058.7057    
     30200  -3305593.2     -3305618.8      25.569016      495.76571     -2264.2857    
     30300  -3305593.1     -3305619.8      26.761951      518.89591     -1928.1648    
     30400  -3305593       -3305618.5      25.47238       493.89199     -6018.7823    
     30500  -3305593       -3305618.4      25.408682      492.65694     -1521.5103    
     30600  -3305593.1     -3305617.2      24.082053      466.93451     -2318.3865    
     30700  -3305593.2     -3305618.6      25.392126      492.33592     -3319.545     
     30800  -3305593.3     -3305618.5      25.231851      489.22831     -4324.1711    
     30900  -3305593.4     -3305619.5      26.047978      505.05246     -1834.0599    
     31000  -3305593.6     -3305618        24.412666      473.34488     -4605.5277    
     31100  -3305593.8     -3305618.6      24.778214      480.43259     -4682.7705    
     31200  -3305594       -3305620.2      26.194012      507.88395     -4698.1483    
     31300  -3305594.2     -3305618.8      24.58094       476.6076      -4117.6136    
     31400  -3305594.4     -3305619        24.573318      476.45981     -3589.1215    
     31500  -3305594.6     -3305618.2      23.666177      458.87096     -3349.5653    
     31600  -3305594.6     -3305619.2      24.565961      476.31716     -3559.8328    
     31700  -3305594.6     -3305620        25.334873      491.22583     -2251.7157    
     31800  -3305594.5     -3305619.5      24.965021      484.05466     -7116.2615    
     31900  -3305594.4     -3305618.8      24.441479      473.90354     -2599.5534    
     32000  -3305594.1     -3305618.7      24.596395      476.90726     -3527.519     
     32100  -3305593.8     -3305620        26.12352       506.51715     -4048.969     
     32200  -3305593.5     -3305619.7      26.178306      507.57943     -1901.2349    
     32300  -3305593.2     -3305618.7      25.552166      495.43899     -2956.943     
     32400  -3305592.8     -3305618.1      25.255843      489.6935      -4463.3181    
     32500  -3305592.4     -3305617.1      24.686273      478.64992     -4411.6788    
     32600  -3305592.1     -3305618        25.876026      501.71843     -2661.0521    
     32700  -3305591.7     -3305615.8      24.076077      466.81865     -6528.37      
     32800  -3305591.4     -3305618        26.643084      516.59115     -3358.2846    
     32900  -3305591.1     -3305617.7      26.625353      516.24736     -4555.3276    
     33000  -3305590.8     -3305617.7      26.875638      521.1002      -5515.5028    
     33100  -3305590.7     -3305617.7      26.997334      523.45982     -4467.5468    
     33200  -3305590.6     -3305618.3      27.655065      536.21276     -3736.6469    
     33300  -3305590.6     -3305617.7      27.094275      525.33943     -3144.0037    
     33400  -3305590.6     -3305618.4      27.797401      538.97256     -4678.1866    
     33500  -3305590.8     -3305618.2      27.451275      532.26143     -5779.1517    
     33600  -3305591       -3305617.6      26.570513      515.18404     -5272.0914    
     33700  -3305591.3     -3305617.4      26.111854      506.29096     -3274.7335    
     33800  -3305591.7     -3305619        27.325872      529.82994     -5006.7854    
     33900  -3305592.2     -3305618.3      26.089027      505.84836     -4416.6306    
     34000  -3305592.6     -3305618.6      25.95388       503.22796     -1453.4901    
     34100  -3305593.1     -3305619.4      26.283568      509.62037     -3598.8354    
     34200  -3305593.6     -3305621        27.411177      531.48395     -2745.8763    
     34300  -3305594       -3305619        25.00435       484.81721     -3383.9358    
     34400  -3305594.4     -3305618.2      23.796328      461.3945      -5362.9846    
     34500  -3305594.6     -3305619.8      25.120814      487.07537     -4189.7799    
     34600  -3305594.9     -3305620.9      26.034206      504.78543     -5863.563     
     34700  -3305595       -3305619.9      24.87063       482.22447     -2864.5289    
     34800  -3305595.1     -3305620.4      25.317706      490.89297     -1611.8606    
     34900  -3305595       -3305620        25.010471      484.9359      -3088.3121    
     35000  -3305594.9     -3305618.7      23.782506      461.12651     -7994.7843    
     35100  -3305594.6     -3305620.3      25.643793      497.21559     -3620.4662    
     35200  -3305594.3     -3305619.2      24.930091      483.37739     -5781.7066    
     35300  -3305593.9     -3305618.8      24.905185      482.89448     -4191.047     
     35400  -3305593.4     -3305619.7      26.348012      510.86991     -2950.8826    
     35500  -3305592.8     -3305620.4      27.627615      535.68054     -2631.5211    
     35600  -3305592.2     -3305618.2      26.000261      504.12724     -7045.9888    
     35700  -3305591.6     -3305618.2      26.61146       515.97797     -4102.1194    
     35800  -3305591       -3305617.8      26.750615      518.6761      -6621.2725    
     35900  -3305590.5     -3305616.8      26.29742       509.88897     -4360.8168    
     36000  -3305589.9     -3305618        28.071407      544.28536      280.5396     
     36100  -3305589.4     -3305616.4      26.929715      522.14873     -4873.947     
     36200  -3305589       -3305616.2      27.229965      527.97038     -3249.3134    
     36300  -3305588.7     -3305616.7      27.989063      542.68876     -3027.8076    
     36400  -3305588.5     -3305617.1      28.591041      554.3607      -2112.6142    
     36500  -3305588.4     -3305616.5      28.049757      543.86558     -3911.0904    
     36600  -3305588.5     -3305618.5      29.998684      581.65392     -1794.1379    
     36700  -3305588.8     -3305615.9      27.167518      526.75957     -2632.2504    
     36800  -3305589.1     -3305617.5      28.405596      550.76505     -5425.6085    
     36900  -3305589.5     -3305617.5      28.047367      543.81923     -3258.229     
     37000  -3305590       -3305615.7      25.742887      499.13694     -2681.8242    
     37100  -3305590.4     -3305618.9      28.437755      551.38858     -6139.9761    
     37200  -3305590.9     -3305619.2      28.295831      548.63678     -1736.3649    
     37300  -3305591.5     -3305617.9      26.443097      512.71354     -3545.6562    
     37400  -3305592       -3305618.7      26.697408      517.64446     -4816.9016    
     37500  -3305592.5     -3305619.4      26.859289      520.78321     -1407.6646    
     37600  -3305593       -3305620        26.976513      523.05611     -4582.7135    
     37700  -3305593.4     -3305619        25.608865      496.53834     -4411.1089    
     37800  -3305593.7     -3305619.4      25.71165       498.53127     -3124.3722    
     37900  -3305594       -3305619        25.088825      486.45513     -4901.7408    
     38000  -3305594.1     -3305620.8      26.743249      518.53328     -3569.6047    
     38100  -3305594.1     -3305620        25.946001      503.07519     -3206.5434    
     38200  -3305594       -3305620.5      26.463278      513.10483     -3553.1088    
     38300  -3305593.9     -3305620.5      26.626993      516.27916      475.68565    
     38400  -3305593.6     -3305620.3      26.684672      517.39751     -2595.5785    
     38500  -3305593.3     -3305620.9      27.633817      535.80078     -4751.8662    
     38600  -3305592.9     -3305618.5      25.620177      496.75768     -3641.4314    
     38700  -3305592.5     -3305618.6      26.151245      507.05473     -6782.0014    
     38800  -3305592       -3305619.3      27.278456      528.91057     -4312.0548    
     38900  -3305591.5     -3305619.2      27.72579       537.58408     -2871.9006    
     39000  -3305591       -3305620.7      29.685919      575.58963     -6194.2047    
     39100  -3305590.4     -3305616.8      26.350216      510.91264     -4683.7594    
     39200  -3305590       -3305618.6      28.631805      555.15108     -2668.6981    
     39300  -3305589.5     -3305616        26.446549      512.78047     -5011.1908    
     39400  -3305589.1     -3305618.1      28.958376      561.48308     -5569.9744    
     39500  -3305588.7     -3305617.4      28.711014      556.68689     -1949.4442    
     39600  -3305588.4     -3305617.1      28.720791      556.87647     -4256.9216    
     39700  -3305588.1     -3305618.2      30.107415      583.76215     -3817.8326    
     39800  -3305587.8     -3305617.2      29.369353      569.45163     -3812.9294    
     39900  -3305587.7     -3305616.4      28.711528      556.69686     -1500.3478    
     40000  -3305587.6     -3305617.2      29.625518      574.4185      -5199.65      
     40100  -3305587.6     -3305616        28.414706      550.94169     -4571.4892    
     40200  -3305587.6     -3305615.1      27.485278      532.92072     -1834.7921    
     40300  -3305587.7     -3305616.1      28.449597      551.6182      -4073.6043    
     40400  -3305587.8     -3305616.3      28.555106      553.66393     -3071.8815    
     40500  -3305588       -3305615.5      27.559231      534.35462     -1590.5786    
     40600  -3305588.2     -3305617.9      29.717544      576.20283     -3848.6565    
     40700  -3305588.5     -3305615.8      27.312612      529.57283     -3836.5454    
     40800  -3305588.9     -3305617.4      28.532193      553.21968     -3559.3837    
     40900  -3305589.2     -3305617.9      28.678782      556.06194     -6195.4322    
     41000  -3305589.7     -3305617.7      28.02109       543.30974     -1104.3139    
     41100  -3305590.2     -3305616.5      26.283795      509.62478     -7336.7236    
     41200  -3305590.6     -3305619.6      29.024106      562.75754     -5120.5745    
     41300  -3305591       -3305618.4      27.423598      531.72479     -952.29453    
     41400  -3305591.3     -3305619.6      28.287532      548.47586     -3159.6366    
     41500  -3305591.6     -3305618.3      26.650496      516.73485     -3048.6916    
     41600  -3305591.8     -3305618        26.219174      508.37182     -3550.6713    
     41700  -3305592       -3305618.6      26.619533      516.13451     -4138.9711    
     41800  -3305592       -3305618.5      26.492724      513.67578     -1582.4205    
     41900  -3305591.9     -3305619.3      27.348196      530.26278     -4157.1964    
     42000  -3305591.8     -3305617.3      25.59309       496.23248     -2569.0709    
     42100  -3305591.5     -3305618.2      26.715067      517.98685     -3784.6187    
     42200  -3305591.2     -3305617.3      26.035859      504.81748     -4455.2949    
     42300  -3305590.9     -3305619.3      28.418058      551.00667     -5081.5423    
     42400  -3305590.5     -3305617.7      27.211955      527.62116     -3322.7538    
     42500  -3305590.1     -3305620.1      30.075944      583.15196     -2660.6348    
     42600  -3305589.6     -3305618.8      29.156837      565.33109     -5655.8734    
     42700  -3305589.2     -3305619.2      29.974182      581.17886     -1753.3372    
     42800  -3305588.8     -3305618.8      30.021749      582.10115     -4980.1965    
     42900  -3305588.3     -3305618.1      29.726738      576.38108     -2436.6387    
     43000  -3305588       -3305618.3      30.344746      588.36383     -3814.5619    
     43100  -3305587.7     -3305617.1      29.380625      569.6702      -2582.4635    
     43200  -3305587.5     -3305618        30.581741      592.959       -2347.2405    
     43300  -3305587.3     -3305618.2      30.959559      600.28464     -2001.9648    
     43400  -3305587.1     -3305617        29.893787      579.62005     -3726.1411    
     43500  -3305587.1     -3305618.3      31.196777      604.88414     -1170.4616    
     43600  -3305587.2     -3305616.7      29.516168      572.29827     -4173.2682    
     43700  -3305587.3     -3305617.5      30.167791      584.9328      -5537.6834    
     43800  -3305587.5     -3305617.3      29.783263      577.47707     -3762.1639    
     43900  -3305587.8     -3305617.3      29.505013      572.08199     -1734.5179    
     44000  -3305588       -3305617        28.963051      561.57373     -3303.7433    
     44100  -3305588.2     -3305617.3      29.089748      564.03029     -3651.0312    
     44200  -3305588.4     -3305617.5      29.126917      564.75097     -4029.4645    
     44300  -3305588.6     -3305617.7      29.135408      564.9156      -5766.5492    
     44400  -3305588.8     -3305617.4      28.536576      553.30465     -1838.5348    
     44500  -3305589       -3305619        30.024745      582.15924     -4015.7268    
     44600  -3305589.2     -3305617.2      28.046008      543.79288     -5611.2224    
     44700  -3305589.3     -3305617.5      28.194359      546.66931     -2010.7132    
     44800  -3305589.3     -3305618.3      28.934246      561.01521     -4138.1158    
     44900  -3305589.3     -3305617.4      28.054467      543.9569      -2271.6515    
     45000  -3305589.3     -3305619.1      29.851741      578.80481     -3035.2713    
     45100  -3305589.2     -3305618        28.824752      558.8922      -4348.5444    
     45200  -3305589       -3305617.2      28.208779      546.94889     -7539.175     
     45300  -3305588.7     -3305617.4      28.747237      557.38924     -6168.5782    
     45400  -3305588.3     -3305616.9      28.510555      552.80013     -1953.0182    
     45500  -3305587.9     -3305617.3      29.426384      570.55742     -5212.7927    
     45600  -3305587.5     -3305617.5      30.026926      582.20152     -3392.2115    
     45700  -3305587       -3305616.5      29.461924      571.24653     -3190.4784    
     45800  -3305586.6     -3305616.7      30.091735      583.45813     -4399.5595    
     45900  -3305586.2     -3305616.6      30.414032      589.70724     -2155.4117    
     46000  -3305585.8     -3305616.7      30.884018      598.81995     -5265.0115    
     46100  -3305585.5     -3305615.1      29.594947      573.82575     -930.99765    
     46200  -3305585.2     -3305616.8      31.606622      612.83075     -2063.3358    
     46300  -3305585.1     -3305616        30.878122      598.70563     -3650.3873    
     46400  -3305585.1     -3305616.8      31.72101       615.04865     -3771.4296    
     46500  -3305585.2     -3305615.5      30.30041       587.50419     -2564.855     
     46600  -3305585.3     -3305615.9      30.529227      591.94079     -6647.3797    
     46700  -3305585.5     -3305616.7      31.130948      603.60776     -6377.3632    
     46800  -3305585.8     -3305616.2      30.463437      590.66517     -1762.3978    
     46900  -3305586       -3305616.3      30.320176      587.88744     -6000.9542    
     47000  -3305586.2     -3305616        29.778365      577.3821      -4548.7528    
     47100  -3305586.4     -3305615.6      29.192532      566.0232      -4964.0365    
     47200  -3305586.6     -3305616        29.474899      571.49809     -2814.4006    
     47300  -3305586.7     -3305615.9      29.244054      567.02217     -3593.5804    
     47400  -3305586.7     -3305615.9      29.215607      566.47061     -4932.4246    
     47500  -3305586.7     -3305616.1      29.451898      571.05213     -2273.5509    
     47600  -3305586.7     -3305617.6      30.963331      600.35777     -4296.1175    
     47700  -3305586.6     -3305617        30.381491      589.0763      -3107.9258    
     47800  -3305586.5     -3305615.9      29.371456      569.49241     -2388.1036    
     47900  -3305586.4     -3305616.8      30.409467      589.61873     -3759.7943    
     48000  -3305586.3     -3305616.2      29.882741      579.40588     -2146.8017    
     48100  -3305586.1     -3305616        29.912558      579.98402     -3303.5641    
     48200  -3305585.9     -3305615.5      29.612536      574.16679     -2680.2709    
     48300  -3305585.6     -3305615.8      30.195443      585.46896     -2760.9476    
     48400  -3305585.2     -3305615.7      30.495733      591.29137     -2870.2168    
     48500  -3305584.9     -3305614.1      29.250292      567.14312      283.74137    
     48600  -3305584.5     -3305616        31.449036      609.77526     -2456.0879    
     48700  -3305584.3     -3305615.5      31.200065      604.94789     -1557.5212    
     48800  -3305584.1     -3305614.2      30.130187      584.20369     -2090.2371    
     48900  -3305583.9     -3305615.1      31.197028      604.889       -1378.1705    
     49000  -3305583.8     -3305614.7      30.934424      599.7973      -1949.651     
     49100  -3305583.7     -3305615.1      31.479454      610.36504     -3353.6933    
     49200  -3305583.6     -3305614.1      30.472351      590.83802     -3886.4845    
     49300  -3305583.6     -3305615.3      31.704426      614.72711     -6644.4575    
     49400  -3305583.6     -3305614.8      31.171849      604.40081     -2312.1592    
     49500  -3305583.8     -3305613.5      29.799327      577.78853     -2016.5449    
     49600  -3305583.9     -3305615.9      31.979434      620.05931     -3340.3681    
     49700  -3305584.1     -3305616.5      32.448754      629.15912     -5901.7644    
     49800  -3305584.2     -3305616.1      31.809863      616.77145     -4504.5113    
     49900  -3305584.5     -3305617.9      33.44081       648.3944      -2517.4869    
     50000  -3305584.8     -3305614.2      29.429231      570.61262     -1823.9081    
Loop time of 8025.06 on 72 procs for 50000 steps with 400 atoms

Performance: 1.077 ns/day, 22.292 hours/ns, 6.230 timesteps/s, 2.492 katom-step/s
93.7% CPU use with 72 MPI tasks x 1 OpenMP threads

MPI task timing breakdown:
Section |  min time  |  avg time  |  max time  |%varavg| %total
---------------------------------------------------------------
Pair    | 4539.1     | 6022.3     | 7072.9     | 749.5 | 75.04
Bond    | 0.028168   | 0.045093   | 0.066649   |   4.4 |  0.00
Neigh   | 0.090188   | 0.10991    | 0.13123    |   2.8 |  0.00
Comm    | 941.76     | 1992.5     | 3475.5     |1303.1 | 24.83
Output  | 1.9718     | 1.9769     | 2.2702     |   2.5 |  0.02
Modify  | 5.9951     | 6.2381     | 6.3942     |   3.6 |  0.08
Other   |            | 1.977      |            |       |  0.02

Nlocal:        5.55556 ave          10 max           2 min
Histogram: 1 3 13 21 0 13 16 4 0 1
Nghost:        369.778 ave         387 max         358 min
Histogram: 6 6 14 8 13 10 9 5 0 1
Neighs:              0 ave           0 max           0 min
Histogram: 72 0 0 0 0 0 0 0 0 0
FullNghs:      452.694 ave         834 max         152 min
Histogram: 1 3 13 20 6 14 10 4 0 1

Total # of neighbors = 32594
Ave neighs/atom = 81.485
Ave special neighs/atom = 0
Neighbor list builds = 2224
Dangerous builds = 0
unfix therm_equ

fix therm_equ2 all nvt temp 600 300 1.0
run 100000
Per MPI rank memory allocation (min/avg/max) = 8.036 | 8.036 | 8.036 Mbytes
   Step         TotEng         PotEng         KinEng          Temp          Press     
     50000  -3305584.8     -3305614.2      29.429231      570.61262     -1823.9081    
     50100  -3305584.8     -3305616.3      31.474786      610.27455     -760.42489    
     50200  -3305584.8     -3305615.1      30.229592      586.13109     -2111.387     
     50300  -3305584.9     -3305616.5      31.604835      612.79609     -2929.0093    
     50400  -3305585       -3305617.7      32.734612      634.70171     -2367.7841    
     50500  -3305585.1     -3305615.2      30.169584      584.96756     -4083.4556    
     50600  -3305585.2     -3305615.7      30.527236      591.9022      -3978.0679    
     50700  -3305585.3     -3305614.7      29.382916      569.71462     -3424.299     
     50800  -3305585.4     -3305615.3      29.854805      578.86421     -1772.1282    
     50900  -3305585.5     -3305615.2      29.682545      575.52422     -4914.5874    
     51000  -3305585.5     -3305614.8      29.282836      567.77413     -3737.6487    
     51100  -3305585.4     -3305614.4      28.992222      562.13933     -3710.4039    
     51200  -3305585.3     -3305615        29.695239      575.77035     -3092.648     
     51300  -3305585       -3305615.2      30.262587      586.77084     -4520.5265    
     51400  -3305584.6     -3305615.8      31.205199      605.04742     -4103.4401    
     51500  -3305584.1     -3305615        30.971624      600.51857     -3265.8778    
     51600  -3305583.6     -3305613.1      29.564151      573.22864     -3154.0649    
     51700  -3305583.1     -3305613.7      30.677516      594.81602     -4299.4867    
     51800  -3305582.6     -3305615.8      33.151257      642.78016     -1674.3735    
     51900  -3305582.3     -3305614.5      32.182992      624.00617     -4340.1715    
     52000  -3305582.1     -3305614.3      32.205457      624.44174     -4548.7559    
     52100  -3305582       -3305613.5      31.481784      610.41023     -3315.9335    
     52200  -3305582       -3305614        31.988142      620.22815     -2965.0792    
     52300  -3305582.1     -3305613.5      31.374053      608.3214      -4163.9776    
     52400  -3305582.3     -3305612.6      30.287537      587.2546      -1642.3382    
     52500  -3305582.6     -3305615.9      33.313133      645.91883     -2925.577     
     52600  -3305583       -3305615.4      32.413824      628.48184     -4434.9022    
     52700  -3305583.6     -3305613.5      29.895306      579.6495      -937.11245    
     52800  -3305584.3     -3305616        31.716945      614.96983     -1683.1777    
     52900  -3305585.1     -3305617.6      32.515274      630.44888     -2566.8876    
     53000  -3305585.8     -3305616.6      30.830268      597.77777     -4199.5699    
     53100  -3305586.3     -3305615.2      28.906398      560.47526     -2219.8823    
     53200  -3305586.6     -3305617.6      30.984644      600.77102     -3041.8014    
     53300  -3305586.8     -3305617.2      30.401367      589.46168     -6507.8826    
     53400  -3305587       -3305618.5      31.443346      609.66495     -4943.0865    
     53500  -3305587.1     -3305616.5      29.395982      569.96796     -2846.2599    
     53600  -3305587.2     -3305617.7      30.459778      590.59423     -2029.5738    
     53700  -3305587.3     -3305617.8      30.561226      592.56124     -6912.9683    
     53800  -3305587.3     -3305618        30.757374      596.3644      -1585.7705    
     53900  -3305587.3     -3305617.1      29.796949      577.74243     -1738.1733    
     54000  -3305587.3     -3305616.5      29.228195      566.71469     -785.38026    
     54100  -3305587.2     -3305618.5      31.242603      605.77268     -5855.4355    
     54200  -3305587.2     -3305619.2      31.995348      620.36787     -2734.7832    
     54300  -3305587.1     -3305616.8      29.682601      575.5253      -1925.4642    
     54400  -3305587       -3305617.1      30.044579      582.54381     -6998.8551    
     54500  -3305587       -3305617.8      30.785556      596.91084     -4758.4844    
     54600  -3305586.9     -3305617.1      30.257691      586.6759      -3053.4936    
     54700  -3305586.8     -3305618.1      31.356901      607.98883     -3852.0438    
     54800  -3305586.6     -3305615.9      29.360186      569.27389     -6856.1121    
     54900  -3305586.3     -3305615.8      29.515008      572.27579     -538.23366    
     55000  -3305585.9     -3305617        31.028218      601.61589     -4189.0346    
     55100  -3305585.6     -3305617.3      31.70609       614.75936     -7377.332     
     55200  -3305585.1     -3305615.7      30.604984      593.40967      1013.1484    
     55300  -3305584.7     -3305616.5      31.770318      616.00471     -4182.9589    
     55400  -3305584.4     -3305615.8      31.477984      610.33655     -2267.1656    
     55500  -3305584.2     -3305614.6      30.435255      590.11875     -2550.8736    
     55600  -3305584.1     -3305615.2      31.067354      602.37471     -795.24599    
     55700  -3305584.2     -3305615.1      30.940083      599.90701     -3382.024     
     55800  -3305584.3     -3305613.8      29.476111      571.52161      197.78336    
     55900  -3305584.6     -3305614        29.411932      570.27722     -4104.1819    
     56000  -3305585       -3305616.6      31.604452      612.78868     -1504.8276    
     56100  -3305585.6     -3305615.5      29.937015      580.45821     -1111.7866    
     56200  -3305586.2     -3305616.1      29.836533      578.50993     -5992.5323    
     56300  -3305586.9     -3305616.7      29.763193      577.08792      1706.5388    
     56400  -3305587.6     -3305617.2      29.655894      575.00747     -3958.3764    
     56500  -3305588       -3305616.8      28.725363      556.9651      -5814.4465    
     56600  -3305588.3     -3305617.4      29.080325      563.84758     -2675.9309    
     56700  -3305588.5     -3305619.1      30.578458      592.89535     -4321.4961    
     56800  -3305588.6     -3305617.8      29.174703      565.67751     -6301.3056    
     56900  -3305588.7     -3305618.2      29.531919      572.60369     -2748.5434    
     57000  -3305588.6     -3305618.5      29.891308      579.57199     -1247.4324    
     57100  -3305588.6     -3305619.1      30.507294      591.51554     -2052.585     
     57200  -3305588.5     -3305617        28.485583      552.31595     -4708.4725    
     57300  -3305588.4     -3305618.1      29.68594       575.59004     -2093.7686    
     57400  -3305588.3     -3305616.8      28.488727      552.37691     -5628.139     
     57500  -3305588.2     -3305618.2      29.998757      581.65535     -2310.1766    
     57600  -3305588       -3305617.6      29.66691       575.22105     -4542.4699    
     57700  -3305587.7     -3305618.5      30.755659      596.33115     -2682.7032    
     57800  -3305587.5     -3305617.6      30.095601      583.53309     -5171.2439    
     57900  -3305587.2     -3305617.4      30.137249      584.34061     -1589.6334    
     58000  -3305586.9     -3305617.6      30.67073       594.68445     -425.56172    
     58100  -3305586.6     -3305618        31.38307       608.49624     -2949.239     
     58200  -3305586.3     -3305617.7      31.408629      608.9918      -3932.744     
     58300  -3305586       -3305616.6      30.624708      593.79211     -3563.5698    
     58400  -3305585.6     -3305617.7      32.039442      621.22283     -1916.0982    
     58500  -3305585.3     -3305616        30.712323      595.49091     -3525.045     
     58600  -3305585       -3305616.6      31.62285       613.14541     -5017.5127    
     58700  -3305584.8     -3305616.2      31.429482      609.39613     -3114.414     
     58800  -3305584.8     -3305617.4      32.653566      633.13028     -2934.3037    
     58900  -3305584.9     -3305616.6      31.699966      614.64063     -4871.3538    
     59000  -3305585.2     -3305617.2      31.993734      620.33659     -1066.0109    
     59100  -3305585.8     -3305617.7      31.873057      617.99674     -325.62429    
     59200  -3305586.6     -3305616.8      30.224049      586.0236      -3472.2124    
     59300  -3305587.4     -3305614.5      27.118659      525.81222     -138.18144    
     59400  -3305588.1     -3305617.3      29.248829      567.11476     -2885.7841    
     59500  -3305588.6     -3305617.6      29.000385      562.2976      -4281.3526    
     59600  -3305589       -3305618.6      29.657847      575.04533     -1272.831     
     59700  -3305589.3     -3305618.5      29.154266      565.28125     -2152.5995    
     59800  -3305589.6     -3305618.7      29.162764      565.44601     -1668.6263    
     59900  -3305589.8     -3305619        29.274454      567.61161     -1656.0424    
     60000  -3305589.9     -3305619        29.145924      565.11951     -1397.8598    
     60100  -3305590       -3305618.1      28.121965      545.26564     -6240.686     
     60200  -3305590.1     -3305620.6      30.50305       591.43324     -1290.1802    
     60300  -3305590.1     -3305620.5      30.434162      590.09756     -1581.7353    
     60400  -3305590.2     -3305619.8      29.663322      575.15148     -1777.3746    
     60500  -3305590.2     -3305620.6      30.42057       589.834       -4355.3516    
     60600  -3305590.3     -3305618.2      27.80474       539.11486     -1056.6554    
     60700  -3305590.5     -3305619.5      28.994287      562.17936     -3278.1764    
     60800  -3305590.6     -3305618.5      27.867437      540.3305      -3608.0005    
     60900  -3305590.8     -3305618.4      27.570712      534.57722     -1969.2694    
     61000  -3305591       -3305619.7      28.72687       556.99432     -2572.3485    
     61100  -3305591.2     -3305620.4      29.153671      565.26972     -4755.8098    
     61200  -3305591.5     -3305620.6      29.062783      563.50746     -994.84689    
     61300  -3305591.8     -3305619.5      27.687177      536.8354      -3689.0996    
     61400  -3305592.1     -3305620.6      28.431448      551.2663      -5284.0353    
     61500  -3305592.4     -3305621        28.630003      555.11615     -3593.662     
     61600  -3305592.7     -3305619.9      27.234493      528.05816     -858.47499    
     61700  -3305592.9     -3305621.2      28.289566      548.51531     -4385.171     
     61800  -3305593.1     -3305621.9      28.810437      558.61463     -5183.3711    
     61900  -3305593.2     -3305622.5      29.232735      566.80271     -2988.3242    
     62000  -3305593.3     -3305621.6      28.258405      547.91112     -3264.3204    
     62100  -3305593.4     -3305621.2      27.788633      538.80257     -2663.9245    
     62200  -3305593.4     -3305620.7      27.268361      528.71485     -4386.4051    
     62300  -3305593.4     -3305621.1      27.709137      537.26118     -4805.1881    
     62400  -3305593.3     -3305623.5      30.20505       585.65522     -2508.0771    
     62500  -3305593.1     -3305623.6      30.465283      590.70097     -4993.1172    
     62600  -3305592.8     -3305622.5      29.634194      574.58672     -5394.6986    
     62700  -3305592.5     -3305621        28.483578      552.27706     -785.37749    
     62800  -3305592.1     -3305620.3      28.251203      547.77147     -5644.0608    
     62900  -3305591.6     -3305620.3      28.674799      555.98472     -3109.5336    
     63000  -3305591.2     -3305620.3      29.116348      564.54604     -3319.7995    
     63100  -3305590.7     -3305620.4      29.608755      574.09347     -1403.0056    
     63200  -3305590.4     -3305618.2      27.867711      540.33583     -4169.2072    
     63300  -3305590       -3305618.7      28.671537      555.92147     -6382.9828    
     63400  -3305589.7     -3305619.4      29.657053      575.02995     -4374.4356    
     63500  -3305589.5     -3305619.5      30.020865      582.08401     -4363.7787    
     63600  -3305589.4     -3305620.5      31.16634       604.29399     -4864.4639    
     63700  -3305589.4     -3305618.8      29.439212      570.80616     -2726.3025    
     63800  -3305589.6     -3305618.4      28.790244      558.2231      -398.3307     
     63900  -3305589.9     -3305620.3      30.432996      590.07494     -4549.7506    
     64000  -3305590.4     -3305618.9      28.480855      552.22426     -2610.8706    
     64100  -3305591.3     -3305620.5      29.216538      566.48866     -1253.3836    
     64200  -3305592.2     -3305620.4      28.182386      546.43716     -1931.4701    
     64300  -3305593       -3305621.3      28.30605       548.83491     -1475.1757    
     64400  -3305593.5     -3305621.4      27.906721      541.0922      -4796.7668    
     64500  -3305593.8     -3305620.3      26.509244      513.99608     -2596.1833    
     64600  -3305593.9     -3305622.3      28.419774      551.03996     -5060.0799    
     64700  -3305594       -3305622.2      28.269082      548.11814     -6191.3451    
     64800  -3305594       -3305622        28.017129      543.23295     -23.475561    
     64900  -3305593.9     -3305622.3      28.394243      550.54492     -2961.2358    
     65000  -3305593.8     -3305622.1      28.321386      549.13227     -2848.317     
     65100  -3305593.6     -3305621.4      27.744331      537.94356     -1831.6989    
     65200  -3305593.4     -3305621.4      27.959282      542.11132     -3991.5217    
     65300  -3305593       -3305621.4      28.38124       550.29281     -3063.0316    
     65400  -3305592.6     -3305621.1      28.514737      552.88121     -5409.9777    
     65500  -3305592.2     -3305622.1      29.905815      579.85326     -3370.6599    
     65600  -3305591.8     -3305620.2      28.405481      550.76282     -2925.5504    
     65700  -3305591.5     -3305620.8      29.342892      568.93858     -5975.7663    
     65800  -3305591.2     -3305618.9      27.742599      537.90998     -1681.305     
     65900  -3305591       -3305620.3      29.310571      568.31188     -4647.9082    
     66000  -3305590.8     -3305620.2      29.382736      569.71112     -2030.4967    
     66100  -3305590.8     -3305620.5      29.703966      575.93955     -3881.1944    
     66200  -3305590.8     -3305619.2      28.409533      550.84138     -4835.6106    
     66300  -3305590.9     -3305618.8      27.923205      541.41181     -2836.5957    
     66400  -3305591       -3305621        29.962831      580.95877     -84.589708    
     66500  -3305591.4     -3305619.9      28.520574      552.99439     -5892.2317    
     66600  -3305592       -3305621.7      29.698914      575.8416      -161.34008    
     66700  -3305592.8     -3305622.8      30.033747      582.33378     -2113.9097    
     66800  -3305593.7     -3305621.5      27.832504      539.65318     -3975.7033    
     66900  -3305594.5     -3305620.3      25.867664      501.55628     -4658.409     
     67000  -3305595       -3305621.7      26.710446      517.89725     -3099.4959    
     67100  -3305595.3     -3305623.1      27.813578      539.28623     -7690.4531    
     67200  -3305595.4     -3305623.3      27.928786      541.52003     -2071.5205    
     67300  -3305595.5     -3305622.2      26.738039      518.43226     -2167.3413    
     67400  -3305595.4     -3305623.1      27.748606      538.02646     -6118.5951    
     67500  -3305595.3     -3305622.4      27.130964      526.05082     -3640.5896    
     67600  -3305595.1     -3305620.7      25.57586       495.89841     -7056.5324    
     67700  -3305594.9     -3305621.9      27.05496       524.57714     -5314.8124    
     67800  -3305594.6     -3305622.3      27.727299      537.61334     -2008.1751    
     67900  -3305594.2     -3305622.2      28.049708      543.86461     -2644.0688    
     68000  -3305593.8     -3305622.8      29.028661      562.84585     -4533.8513    
     68100  -3305593.4     -3305622.6      29.210049      566.36284     -1717.8509    
     68200  -3305593.1     -3305622.1      29.027103      562.81564     -4373.8929    
     68300  -3305592.8     -3305621.4      28.553452      553.63187     -4765.5786    
     68400  -3305592.6     -3305620.7      28.096262      544.76727     -193.69964    
     68500  -3305592.5     -3305620.2      27.643396      535.98651     -3708.536     
     68600  -3305592.5     -3305620.9      28.420446      551.05297     -5651.3033    
     68700  -3305592.5     -3305621.2      28.76927       557.81645     -1863.9726    
     68800  -3305592.5     -3305620.5      27.918244      541.31563     -7075.4678    
     68900  -3305592.7     -3305621.2      28.44323       551.49475     -2006.8792    
     69000  -3305593.1     -3305622.5      29.45615       571.13456     -3645.6641    
     69100  -3305593.6     -3305621        27.342847      530.15908     -4468.2106    
     69200  -3305594.4     -3305622.4      28.013289      543.15849     -1745.8665    
     69300  -3305595.2     -3305621.7      26.452663      512.89901     -3964.6361    
     69400  -3305596       -3305622.5      26.499577      513.80865     -4264.1876    
     69500  -3305596.5     -3305624.2      27.7124        537.32445     -2031.499     
     69600  -3305596.8     -3305623.9      27.13488       526.12674     -6252.3441    
     69700  -3305596.9     -3305624.4      27.472197      532.66709     -3101.4254    
     69800  -3305597       -3305623.9      26.886764      521.31594     -3214.2231    
     69900  -3305597       -3305622.1      25.165376      487.93941     -6170.9969    
     70000  -3305596.9     -3305625.1      28.194136      546.66499      687.52899    
     70100  -3305596.8     -3305624        27.257378      528.5019      -7294.119     
     70200  -3305596.6     -3305623.8      27.186433      527.12631     -5322.5273    
     70300  -3305596.4     -3305624.2      27.786183      538.75505     -3162.992     
     70400  -3305596.2     -3305624.2      28.057052      544.00701     -5845.7812    
     70500  -3305595.8     -3305623        27.212344      527.6287      -3326.0919    
     70600  -3305595.5     -3305623.7      28.244305      547.63772     -5631.6764    
     70700  -3305595.1     -3305624.3      29.177983      565.74111     -3823.0316    
     70800  -3305594.7     -3305623.5      28.83728       559.1351      -6294.6387    
     70900  -3305594.3     -3305621.7      27.40419       531.34848     -6971.8386    
     71000  -3305594       -3305624.1      30.147449      584.53838     -4068.5675    
     71100  -3305593.6     -3305622        28.305859      548.83121     -3954.8777    
     71200  -3305593.4     -3305620.6      27.228667      527.94521     -7331.0627    
     71300  -3305593.2     -3305622.2      28.989605      562.08859     -1566.9593    
     71400  -3305593.1     -3305621.6      28.44699       551.56765     -1421.5098    
     71500  -3305593.1     -3305622        28.864808      559.66885     -1620.0771    
     71600  -3305593.2     -3305621.9      28.767134      557.77502     -3047.3804    
     71700  -3305593.4     -3305620.9      27.585824      534.87023     -3901.8301    
     71800  -3305593.8     -3305622        28.217482      547.11765     -3447.186     
     71900  -3305594.6     -3305622.1      27.492656      533.06376     -5719.0911    
     72000  -3305595.6     -3305622.2      26.611228      515.97347     -1870.4944    
     72100  -3305596.5     -3305621.2      24.747962      479.84604     -3023.273     
     72200  -3305597       -3305623.2      26.255504      509.07623     -4830.9455    
     72300  -3305597.3     -3305624        26.701443      517.72268     -3410.6982    
     72400  -3305597.5     -3305622.4      24.915699      483.09833     -3752.3391    
     72500  -3305597.6     -3305623        25.438433      493.23379     -3633.2976    
     72600  -3305597.5     -3305624.1      26.545282      514.69482     -1105.7187    
     72700  -3305597.4     -3305623.2      25.797445      500.19479     -4216.8883    
     72800  -3305597.1     -3305622.5      25.305881      490.6637      -4678.742     
     72900  -3305596.8     -3305624.3      27.488216      532.97767     -2240.8995    
     73000  -3305596.5     -3305623.3      26.823196      520.08339     -5838.6279    
     73100  -3305596.1     -3305621.2      25.120249      487.06442     -3375.0872    
     73200  -3305595.7     -3305623.4      27.728798      537.6424      -6193.3998    
     73300  -3305595.3     -3305623.1      27.781811      538.67029     -4700.3052    
     73400  -3305595       -3305623.6      28.530304      553.18306     -2017.5504    
     73500  -3305594.8     -3305623.1      28.335986      549.41536     -4759.8632    
     73600  -3305594.6     -3305621.8      27.175514      526.91459     -1515.8038    
     73700  -3305594.5     -3305624        29.471566      571.43348     -2164.2261    
     73800  -3305594.5     -3305620.7      26.186755      507.74323     -3006.4993    
     73900  -3305594.5     -3305621.3      26.759893      518.85599     -518.95265    
     74000  -3305594.7     -3305622.9      28.233953      547.43701     -1616.2444    
     74100  -3305595       -3305622.1      27.073039      524.92769     -5293.7323    
     74200  -3305595.5     -3305622.2      26.679096      517.28939     -1858.7688    
     74300  -3305596       -3305623.1      27.098091      525.41342     -3873.2027    
     74400  -3305596.7     -3305623.9      27.130097      526.03399     -3138.8992    
     74500  -3305597.5     -3305623.9      26.435324      512.56282     -2820.0613    
     74600  -3305598.1     -3305624.3      26.166442      507.34939     -5258.7329    
     74700  -3305598.6     -3305624.6      26.026402      504.63411     -4035.368     
     74800  -3305598.8     -3305623.9      25.104242      486.75405     -4895.5572    
     74900  -3305598.9     -3305623.8      24.876742      482.34299     -3545.9372    
     75000  -3305598.9     -3305625        26.099108      506.04383     -2960.5952    
     75100  -3305598.9     -3305624.2      25.347215      491.46513     -4621.4383    
     75200  -3305598.8     -3305625.4      26.640199      516.53521     -2925.0033    
     75300  -3305598.6     -3305624.6      25.947935      503.11268     -4062.3716    
     75400  -3305598.4     -3305624.7      26.313494      510.20062     -1965.2812    
     75500  -3305598.1     -3305625.1      26.948526      522.51346     -3843.6565    
     75600  -3305597.9     -3305622.8      24.927972      483.33629     -5335.0442    
     75700  -3305597.5     -3305624.1      26.568961      515.15395     -1985.391     
     75800  -3305597.2     -3305624.8      27.588562      534.92331     -5235.9834    
     75900  -3305596.9     -3305625.1      28.232342      547.40577     -2643.8045    
     76000  -3305596.6     -3305622.5      25.828682      500.80045     -3093.8422    
     76100  -3305596.4     -3305623.8      27.4147        531.55226     -4223.2724    
     76200  -3305596.2     -3305624.1      27.945112      541.83658     -5298.318     
     76300  -3305596       -3305623.6      27.622789      535.58695     -2773.7617    
     76400  -3305595.9     -3305620.9      25.063286      485.95995     -3720.0278    
     76500  -3305595.7     -3305623.5      27.784706      538.72641     -7570.1923    
     76600  -3305595.7     -3305621.9      26.275828      509.4703      -1258.6618    
     76700  -3305595.6     -3305622.5      26.91834       521.92816     -4748.9861    
     76800  -3305595.7     -3305623        27.396622      531.20173     -3745.5098    
     76900  -3305595.9     -3305623.9      28.011179      543.11756     -6662.1116    
     77000  -3305596.3     -3305623.4      27.079712      525.05707     -4702.0252    
     77100  -3305597.1     -3305625.8      28.710916      556.68499     -8161.9586    
     77200  -3305597.9     -3305625.5      27.563198      534.43153     -4738.4384    
     77300  -3305598.6     -3305624.8      26.158096      507.18757     -4503.5968    
     77400  -3305599.2     -3305627.3      28.135129      545.52089     -4877.3023    
     77500  -3305599.6     -3305626.2      26.59775       515.71215     -1325.855     
     77600  -3305599.9     -3305625.5      25.614132      496.64047     -5446.6385    
     77700  -3305600.1     -3305626.5      26.362205      511.1451      -5861.606     
     77800  -3305600.3     -3305626.2      25.913305      502.44123     -1607.7597    
     77900  -3305600.4     -3305625.5      25.170516      488.03907     -4318.1429    
     78000  -3305600.4     -3305625.4      25.010597      484.93835     -3266.0095    
     78100  -3305600.3     -3305627.2      26.861204      520.82035     -5761.1621    
     78200  -3305600.2     -3305626.4      26.144795      506.92966     -5600.116     
     78300  -3305600       -3305625.5      25.46003       493.65254     -3745.9747    
     78400  -3305599.8     -3305624.6      24.768567      480.24555     -5639.8694    
     78500  -3305599.5     -3305625.1      25.646825      497.27437     -3196.3661    
     78600  -3305599.1     -3305626.8      27.712894      537.33403     -3208.2027    
     78700  -3305598.6     -3305624.6      25.970854      503.55707     -4882.0229    
     78800  -3305598.2     -3305624.6      26.445262      512.75552     -7470.4559    
     78900  -3305597.7     -3305625.2      27.48587       532.93218     -3371.3009    
     79000  -3305597.4     -3305624.1      26.696079      517.61868     -2535.0316    
     79100  -3305597       -3305624.2      27.177384      526.95086     -5792.1994    
     79200  -3305596.8     -3305623.7      26.875249      521.09266     -3903.7158    
     79300  -3305596.6     -3305624.4      27.758832      538.22474     -1797.86      
     79400  -3305596.5     -3305623.3      26.764611      518.94748     -5271.9052    
     79500  -3305596.6     -3305623.4      26.858007      520.75836     -1846.4437    
     79600  -3305596.6     -3305624.8      28.202383      546.82489     -2621.9137    
     79700  -3305596.8     -3305623.6      26.819771      520.01699     -4068.7859    
     79800  -3305597       -3305623.1      26.144364      506.92132     -2495.9619    
     79900  -3305597.2     -3305623.4      26.210338      508.2005      -5211.7091    
     80000  -3305597.5     -3305623.9      26.416153      512.1911      -4819.4251    
     80100  -3305597.7     -3305623.2      25.479563      494.03127     -4993.6414    
     80200  -3305597.9     -3305623.5      25.5869        496.11245     -6249.1749    
     80300  -3305598.1     -3305624.5      26.440766      512.66835     -5757.1766    
     80400  -3305598.2     -3305626.3      28.176371      546.32054     -4598.6268    
     80500  -3305598.3     -3305623.2      24.939773      483.56511     -5884.1866    
     80600  -3305598.4     -3305625        26.662172      516.96125     -3873.5568    
     80700  -3305598.5     -3305624.9      26.446352      512.77665     -3661.6383    
     80800  -3305598.5     -3305624.6      26.070569      505.49047     -6609.1208    
     80900  -3305598.6     -3305625        26.427272      512.40669     -5176.9595    
     81000  -3305598.7     -3305623.9      25.206101      488.72903     -4523.5979    
     81100  -3305598.8     -3305626.4      27.67906       536.67802     -3331.3362    
     81200  -3305598.9     -3305624.5      25.617758      496.71078     -3665.0348    
     81300  -3305599       -3305624.2      25.23566       489.30216     -3334.2442    
     81400  -3305599.1     -3305624.3      25.19389       488.49228     -4074.2239    
     81500  -3305599.2     -3305625        25.788972      500.03049     -2900.4711    
     81600  -3305599.4     -3305626.3      26.919788      521.95624     -4958.6807    
     81700  -3305599.5     -3305624.5      25.004271      484.81568     -5171.4945    
     81800  -3305599.6     -3305627.3      27.636744      535.85754     -5856.3091    
     81900  -3305599.7     -3305624.8      25.091213      486.50144     -5407.1451    
     82000  -3305599.9     -3305624.5      24.662764      478.1941      -5588.4451    
     82100  -3305600       -3305625.1      25.144191      487.52864     -6514.9214    
     82200  -3305600.1     -3305626.5      26.421755      512.29973     -5597.7302    
     82300  -3305600.2     -3305625.6      25.448109      493.42139     -6018.7531    
     82400  -3305600.2     -3305626        25.738624      499.05429     -4241.5858    
     82500  -3305600.2     -3305624.6      24.401325      473.12497     -6955.7023    
     82600  -3305600.1     -3305624.3      24.231281      469.82794     -9516.9926    
     82700  -3305599.9     -3305625        25.138748      487.4231      -2437.2464    
     82800  -3305599.6     -3305624.3      24.684431      478.61421     -10625.957    
     82900  -3305599.3     -3305624.8      25.572194      495.82733     -6108.807     
     83000  -3305598.8     -3305625.3      26.45134       512.87336     -7599.7196    
     83100  -3305598.4     -3305623.5      25.080049      486.28497     -5935.4608    
     83200  -3305597.9     -3305624.8      26.872827      521.0457      -5670.418     
     83300  -3305597.5     -3305623.4      25.922256      502.61478     -7767.2549    
     83400  -3305597.2     -3305622.8      25.592589      496.22276     -4275.5492    
     83500  -3305597       -3305622.3      25.367766      491.86361     -6520.345     
     83600  -3305596.8     -3305622.7      25.905844      502.29657     -5304.8439    
     83700  -3305596.7     -3305622.7      25.920609      502.58285     -1912.3255    
     83800  -3305596.7     -3305624.3      27.59978       535.14083     -7438.9114    
     83900  -3305596.8     -3305624.2      27.336924      530.04424     -1771.1184    
     84000  -3305597.1     -3305623.8      26.732502      518.32491     -2156.707     
     84100  -3305597.4     -3305623.3      25.883299      501.85944     -5218.8422    
     84200  -3305598       -3305625.2      27.2272        527.91675     -4005.2247    
     84300  -3305598.6     -3305624.1      25.498765      494.40358     -4475.2126    
     84400  -3305599.2     -3305624.5      25.317422      490.88748     -4486.0206    
     84500  -3305599.7     -3305625        25.278871      490.13999     -4713.5029    
     84600  -3305600.1     -3305625.4      25.290613      490.36765     -6924.8816    
     84700  -3305600.3     -3305624.6      24.240553      470.00772     -1688.0177    
     84800  -3305600.5     -3305626.9      26.418896      512.24429     -5520.2232    
     84900  -3305600.6     -3305626        25.395753      492.40626     -6930.3714    
     85000  -3305600.6     -3305626.2      25.540089      495.20484     -6092.6805    
     85100  -3305600.6     -3305625.6      24.984388      484.43016     -8194.8993    
     85200  -3305600.6     -3305625.9      25.248829      489.55751     -5627.9215    
     85300  -3305600.6     -3305626.7      26.072615      505.53015     -3307.4572    
     85400  -3305600.5     -3305626.8      26.237744      508.73188     -5893.3221    
     85500  -3305600.5     -3305625.1      24.596439      476.9081      -4332.4592    
     85600  -3305600.5     -3305625.9      25.335855      491.24487     -4783.2551    
     85700  -3305600.5     -3305625.8      25.332246      491.17489     -5015.9281    
     85800  -3305600.5     -3305625.5      25.027442      485.26497     -4784.1021    
     85900  -3305600.5     -3305625.6      25.074267      486.17286     -4670.546     
     86000  -3305600.5     -3305626.6      26.082329      505.71849     -5527.253     
     86100  -3305600.5     -3305625.7      25.160392      487.84276     -1897.8847    
     86200  -3305600.5     -3305626.2      25.684043      497.99599     -6821.7814    
     86300  -3305600.6     -3305625.9      25.351076      491.53999     -6476.4253    
     86400  -3305600.6     -3305624.9      24.291787      471.00111     -4291.7325    
     86500  -3305600.6     -3305625.5      24.94116       483.59201     -4924.4675    
     86600  -3305600.6     -3305625.2      24.616667      477.30031     -7283.2655    
[...]
    228700  -3305626.7     -3305642.5      15.783129      306.02405      1092.0858    
    228800  -3305626.6     -3305642.7      16.064883      311.48708     -358.96433    
    228900  -3305626.4     -3305642.4      15.973457      309.71439     -3158.0125    
    229000  -3305626.4     -3305641.9      15.443651      299.44181     -1208.3371    
    229100  -3305626.4     -3305641.8      15.375702      298.12434      908.10483    
    229200  -3305626.4     -3305642        15.591595      302.31035      2202.1311    
    229300  -3305626.4     -3305642.3      15.91737       308.6269      -1731.4831    
    229400  -3305626.4     -3305642.7      16.291589      315.88276      1079.3492    
    229500  -3305626.5     -3305641.9      15.458815      299.73583     -918.34555    
    229600  -3305626.5     -3305642        15.514873      300.82275     -1061.1849    
    229700  -3305626.6     -3305642.1      15.504293      300.61761      319.71109    
    229800  -3305626.7     -3305642.8      16.078969      311.76019     -1570.0241    
    229900  -3305626.8     -3305642.7      15.828472      306.90323     -992.03772    
    230000  -3305626.9     -3305642.7      15.881094      307.92353      466.00733    
    230100  -3305627       -3305642.3      15.318342      297.01216     -1203.8714    
    230200  -3305627.1     -3305642.2      15.116697      293.10239     -2176.9556    
    230300  -3305627.2     -3305641.3      14.121786      273.81176      1038.0455    
    230400  -3305627.3     -3305642.5      15.173829      294.21015     -464.58251    
    230500  -3305627.4     -3305643.4      15.976906      309.78125      3641.5141    
    230600  -3305627.7     -3305642.7      14.969562      290.24955     -909.88205    
    230700  -3305627.8     -3305642.9      15.052332      291.8544      -1601.3045    
    230800  -3305627.9     -3305643.1      15.219052      295.087        1011.012     
    230900  -3305628       -3305643.1      15.023904      291.30321      71.713737    
    231000  -3305628.1     -3305642.4      14.215013      275.61937      1549.9528    
    231100  -3305628.2     -3305643.7      15.489784      300.3363       802.34089    
    231200  -3305628.2     -3305643.1      14.822927      287.40639      278.10545    
    231300  -3305628.2     -3305643.5      15.268353      296.04291      126.69543    
    231400  -3305628.1     -3305643        14.931578      289.51307     -809.64653    
    231500  -3305627.9     -3305642.7      14.795152      286.86785     -506.80687    
    231600  -3305627.6     -3305642.5      14.821441      287.37758     -242.85436    
    231700  -3305627.3     -3305643        15.744657      305.27811     -135.30774    
    231800  -3305626.9     -3305641.9      14.926306      289.41086     -1683.5895    
    231900  -3305626.6     -3305641.5      14.844642      287.82743      1812.4549    
    232000  -3305626.3     -3305641.3      14.910712      289.1085       556.5222     
    232100  -3305626.1     -3305641.7      15.52481       301.01542      343.70737    
    232200  -3305626       -3305641.7      15.740552      305.19852     -2468.9976    
    232300  -3305625.9     -3305641.1      15.242752      295.54652      1203.163     
    232400  -3305625.8     -3305641.5      15.744874      305.28233      1584.84      
    232500  -3305625.7     -3305642.2      16.466356      319.27137     -1731.9221    
    232600  -3305625.7     -3305641.9      16.150728      313.15155     -661.34779    
    232700  -3305625.7     -3305641.4      15.642447      303.29633     -643.07398    
    232800  -3305625.8     -3305642.3      16.556115      321.01173      2787.2791    
    232900  -3305625.9     -3305642        16.06343       311.45891      2918.625     
    233000  -3305626       -3305641.6      15.567434      301.84188     -823.33379    
    233100  -3305626.2     -3305642        15.806319      306.4737       219.15849    
    233200  -3305626.4     -3305642.1      15.701665      304.44452      3544.3095    
    233300  -3305626.7     -3305641.7      15.033465      291.48859     -2576.4894    
    233400  -3305627       -3305642.7      15.639817      303.24534      842.9766     
    233500  -3305627.3     -3305641.4      14.163289      274.61646      2654.5236    
    233600  -3305627.5     -3305642        14.477995      280.7184      -3510.1449    
    233700  -3305627.8     -3305642.1      14.361104      278.45197      1155.9876    
    233800  -3305627.9     -3305643.1      15.147712      293.70375      377.91369    
    233900  -3305628       -3305642.2      14.217047      275.6588      -1184.9206    
    234000  -3305628.1     -3305642.8      14.776416      286.50458      1127.5671    
    234100  -3305628.2     -3305643.1      14.983966      290.52884     -1147.8223    
    234200  -3305628       -3305643.2      15.126146      293.28561     -606.88179    
    234300  -3305627.9     -3305643.2      15.301699      296.68946      573.81655    
    234400  -3305627.8     -3305641.7      13.950624      270.49305      752.37085    
    234500  -3305627.7     -3305642.4      14.751941      286.03004      616.28698    
    234600  -3305627.6     -3305642.5      14.890213      288.71103      437.53164    
    234700  -3305627.4     -3305642.7      15.242766      295.54679     -2522.9446    
    234800  -3305627.4     -3305642.7      15.313907      296.92616      1461.8602    
    234900  -3305627.3     -3305642.3      15.008852      291.01135      1686.1075    
    235000  -3305627.2     -3305642.1      14.912806      289.1491      -2500.9086    
    235100  -3305627.1     -3305642.2      15.039694      291.60937      1499.3268    
    235200  -3305627       -3305641.9      14.862964      288.1827      -212.39615    
    235300  -3305626.9     -3305642        15.079383      292.37891      10.128777    
    235400  -3305626.7     -3305642.4      15.68771       304.17394     -231.78107    
    235500  -3305626.6     -3305642.4      15.870291      307.71407     -937.02672    
    235600  -3305626.4     -3305642.5      16.033747      310.88337      777.16322    
    235700  -3305626.3     -3305642        15.739868      305.18525      1319.8267    
    235800  -3305626.1     -3305641.5      15.39685       298.53437      541.25848    
    235900  -3305626       -3305641.9      15.9041        308.36961     -2158.471     
    236000  -3305625.8     -3305641.7      15.922963      308.73534     -2556.793     
    236100  -3305625.7     -3305642.1      16.386628      317.72548     -89.590947    
    236200  -3305625.6     -3305640.8      15.188356      294.49183     -1031.4919    
    236300  -3305625.6     -3305641.7      16.072866      311.64186      1199.8712    
    236400  -3305625.6     -3305640.6      15.065352      292.10686      863.03523    
    236500  -3305625.6     -3305641.4      15.800749      306.3657      -2726.8189    
    236600  -3305625.8     -3305641.9      16.169182      313.50937      754.71354    
    236700  -3305626       -3305641.9      15.910642      308.49645     -312.84408    
    236800  -3305626.4     -3305641.9      15.578534      302.05711     -169.38867    
    236900  -3305626.7     -3305641.7      15.012455      291.08122      2947.845     
    237000  -3305627.1     -3305642.1      15.018532      291.19905      268.58531    
    237100  -3305627.4     -3305642.2      14.813901      287.2314      -547.66656    
    237200  -3305627.7     -3305642.5      14.791132      286.78991      1781.3764    
    237300  -3305627.8     -3305642.2      14.413052      279.4592      -1650.2508    
    237400  -3305627.9     -3305642.7      14.787375      286.71708     -197.72793    
    237500  -3305627.9     -3305643        15.094874      292.67927      3077.0291    
    237600  -3305627.9     -3305643.1      15.223513      295.17349     -2872.8219    
    237700  -3305627.8     -3305642.9      15.136497      293.4863       2060.2037    
    237800  -3305627.7     -3305643.2      15.469677      299.94644     -2080.7621    
    237900  -3305627.6     -3305642.9      15.340798      297.44757     -1878.9719    
    238000  -3305627.4     -3305641.8      14.407551      279.35255     -234.95666    
    238100  -3305627.2     -3305641.7      14.580128      282.69869      416.34612    
    238200  -3305626.9     -3305642.1      15.15034       293.75472      1841.1526    
    238300  -3305626.7     -3305642.4      15.631224      303.07872     -2615.637     
    238400  -3305626.5     -3305642.2      15.632507      303.1036       1684.4608    
    238500  -3305626.3     -3305641        14.715866      285.33055     -4048.9624    
    238600  -3305626.2     -3305642.4      16.188641      313.88666      814.50734    
    238700  -3305626.1     -3305642.2      16.071253      311.61059     -927.19944    
    238800  -3305626       -3305641.7      15.705786      304.52443      1330.2529    
    238900  -3305626       -3305641.9      15.933983      308.94901     -876.74716    
    239000  -3305625.9     -3305641.6      15.616339      302.79012     -320.00239    
    239100  -3305626       -3305641.8      15.799035      306.33247     -1545.5586    
    239200  -3305626       -3305641.9      15.923635      308.74837      1463.6549    
    239300  -3305626       -3305641.2      15.143347      293.61913     -943.27446    
    239400  -3305626.1     -3305641.5      15.492275      300.38459     -6.2980613    
    239500  -3305626.1     -3305642.3      16.20091       314.12454     -1899.9846    
    239600  -3305626.2     -3305641.3      15.096692      292.71452      1817.3437    
    239700  -3305626.3     -3305641.9      15.593159      302.34067      193.03499    
    239800  -3305626.3     -3305641.2      14.921034      289.30862     -971.8352     
    239900  -3305626.4     -3305641.3      14.877823      288.47079      1351.2096    
    240000  -3305626.4     -3305641        14.562358      282.35414      686.27105    
    240100  -3305626.5     -3305642.3      15.758639      305.54921      146.1841     
    240200  -3305626.6     -3305642.3      15.713376      304.67159     -516.66327    
    240300  -3305626.6     -3305642.5      15.831774      306.96726      2418.8187    
    240400  -3305626.7     -3305641.9      15.209312      294.89815     -2295.3575    
    240500  -3305626.7     -3305642.8      16.121886      312.59232     -142.68613    
    240600  -3305626.8     -3305642.3      15.51709       300.86574     -1997.8498    
    240700  -3305626.8     -3305641.8      14.980254      290.45687      3213.7831    
    240800  -3305626.9     -3305642        15.143463      293.62138     -2211.5401    
    240900  -3305626.9     -3305642.4      15.478976      300.12675     -225.03579    
    241000  -3305627       -3305641.7      14.768007      286.34155      1656.782     
    241100  -3305627       -3305642.4      15.317941      297.00437     -302.57927    
    241200  -3305627.1     -3305642.3      15.24423       295.57517     -2251.1597    
    241300  -3305627       -3305642.8      15.77546       305.87536      2761.8121    
    241400  -3305627.1     -3305643        15.914747      308.57604     -1168.1843    
    241500  -3305627.1     -3305642.6      15.520185      300.92575     -1865.349     
    241600  -3305627.1     -3305642.6      15.468373      299.92115      1601.7013    
    241700  -3305627.1     -3305642.4      15.296287      296.58452     -1111.3897    
    241800  -3305627       -3305643        15.954701      309.35072      73.597183    
    241900  -3305627       -3305642.1      15.142048      293.59394     -1138.2467    
    242000  -3305626.9     -3305642.8      15.943784      309.13904      2063.0107    
    242100  -3305626.8     -3305642.4      15.630177      303.05843     -2709.4939    
    242200  -3305626.6     -3305641.9      15.230233      295.30379     -2689.6362    
    242300  -3305626.5     -3305642.6      16.055915      311.31319      1540.3488    
    242400  -3305626.3     -3305642.3      16.033123      310.87127     -1623.2388    
    242500  -3305626.1     -3305641.3      15.13504       293.45805      799.72087    
    242600  -3305625.9     -3305641.4      15.45132       299.59051      815.31628    
    242700  -3305625.8     -3305641.5      15.713463      304.67329      1573.8643    
    242800  -3305625.7     -3305642        16.379117      317.57986     -3234.1868    
    242900  -3305625.6     -3305642.3      16.729723      324.37787     -998.70683    
    243000  -3305625.5     -3305641.2      15.684781      304.11716      3079.3839    
    243100  -3305625.4     -3305641.3      15.822372      306.78495     -2722.665     
    243200  -3305625.5     -3305641.6      16.178228      313.68476      3768.1406    
    243300  -3305625.5     -3305641.5      15.99328       310.09875     -2012.6153    
    243400  -3305625.6     -3305641.3      15.666078      303.75453      994.82644    
    243500  -3305625.8     -3305641.1      15.23607       295.41696     -2509.4323    
    243600  -3305626.1     -3305642.1      16.044089      311.08389      2212.2646    
    243700  -3305626.4     -3305641.8      15.346024      297.54889     -1913.9687    
    243800  -3305626.8     -3305641.7      14.890371      288.7141       1343.2069    
    243900  -3305627.2     -3305642.3      15.142046      293.59389     -714.77022    
    244000  -3305627.5     -3305641.9      14.425709      279.70462     -213.40564    
    244100  -3305627.7     -3305642.3      14.652839      284.1085       1863.8508    
    244200  -3305627.8     -3305642.9      15.100181      292.78217     -1395.405     
    244300  -3305627.9     -3305643.3      15.357089      297.76344      1953.3284    
    244400  -3305627.9     -3305642.6      14.65004       284.05424     -1363.7236    
    244500  -3305627.9     -3305642.5      14.635082      283.76422     -1348.1967    
    244600  -3305627.8     -3305642.3      14.505695      281.25549     -1296.4195    
    244700  -3305627.6     -3305642.2      14.600459      283.09289      749.52372    
    244800  -3305627.5     -3305642.3      14.850231      287.9358      -656.45726    
    244900  -3305627.2     -3305642.1      14.876235      288.44001     -3475.1755    
    245000  -3305627       -3305642.3      15.329217      297.22302      1107.2276    
    245100  -3305626.7     -3305642.1      15.314317      296.93411     -1333.9434    
    245200  -3305626.5     -3305642.2      15.697482      304.36342     -552.95428    
    245300  -3305626.3     -3305641.7      15.350858      297.64261      1025.6227    
    245400  -3305626.2     -3305641.5      15.328215      297.20358     -992.90642    
    245500  -3305626.1     -3305642        15.89475       308.18831      1955.2191    
    245600  -3305626       -3305642.1      16.109454      312.35128     -1625.7852    
    245700  -3305626       -3305640.8      14.80573       287.07296     -271.12511    
    245800  -3305626       -3305641.5      15.559944      301.69666     -1451.9242    
    245900  -3305626       -3305641.8      15.810569      306.5561       899.6019     
    246000  -3305626       -3305642        15.96832       309.61479     -418.62847    
    246100  -3305626.1     -3305642.3      16.227481      314.63974     -482.18174    
    246200  -3305626.2     -3305642.3      16.104167      312.24876      1607.1418    
    246300  -3305626.2     -3305642.5      16.269364      315.45182     -1939.3847    
    246400  -3305626.4     -3305641.5      15.111217      292.99615      991.09864    
    246500  -3305626.4     -3305641.6      15.185892      294.44404      1231.3105    
    246600  -3305626.5     -3305642.7      16.186888      313.85267      2499.89      
    246700  -3305626.6     -3305641.4      14.750849      286.00885     -4523.9618    
    246800  -3305626.7     -3305641.7      15.004029      290.91785      268.18102    
    246900  -3305626.8     -3305642.9      16.080007      311.78032      1750.4408    
    247000  -3305626.9     -3305642.6      15.794622      306.24691     -60.411217    
    247100  -3305626.9     -3305642.7      15.725863      304.91372      1245.5283    
    247200  -3305627       -3305642.7      15.698492      304.383       -2011.1423    
    247300  -3305627.2     -3305642.9      15.778482      305.93397     -553.61732    
    247400  -3305627.3     -3305642.5      15.170208      294.13994      926.18259    
    247500  -3305627.5     -3305642.2      14.741776      285.83294     -355.24626    
    247600  -3305627.7     -3305642.7      14.969177      290.24209      353.52464    
    247700  -3305628       -3305642.2      14.170544      274.75715     -215.95092    
    247800  -3305628.3     -3305642.7      14.416286      279.5219       1265.2051    
    247900  -3305628.6     -3305642.3      13.665397      264.96268      1456.0763    
    248000  -3305628.9     -3305643.2      14.308476      277.43154     -74.567594    
    248100  -3305629       -3305642.9      13.963561      270.74389     -1191.6843    
    248200  -3305629       -3305643.6      14.541465      281.94904      933.21508    
    248300  -3305629       -3305642.5      13.495262      261.66388      331.40006    
    248400  -3305628.9     -3305643.3      14.447459      280.12633     -889.89244    
    248500  -3305628.7     -3305642.9      14.229354      275.89742     -392.90476    
    248600  -3305628.4     -3305643.4      14.973219      290.32046      3136.3341    
    248700  -3305628       -3305642.5      14.445394      280.08629     -3012.0208    
    248800  -3305627.7     -3305643.1      15.471952      299.99054      1519.7536    
    248900  -3305627.4     -3305642.9      15.519211      300.90686      499.56218    
    249000  -3305627.1     -3305642.3      15.142096      293.59486     -540.94184    
    249100  -3305627       -3305641.7      14.746542      285.92534      1287.1709    
    249200  -3305626.8     -3305642        15.132326      293.40544      890.12623    
    249300  -3305626.7     -3305642.1      15.333427      297.30464     -487.84436    
    249400  -3305626.7     -3305641.9      15.238724      295.46842      226.1471     
    249500  -3305626.6     -3305641.6      14.985063      290.55011      168.31775    
    249600  -3305626.5     -3305642.3      15.806639      306.4799      -224.23997    
    249700  -3305626.4     -3305642.3      15.835471      307.03893      990.60751    
    249800  -3305626.4     -3305641.9      15.48925       300.32595     -1304.6712    
    249900  -3305626.4     -3305641.9      15.545319      301.41308      2239.6127    
    250000  -3305626.3     -3305641.8      15.4443        299.45441      238.52595    
Loop time of 8264.31 on 72 procs for 50000 steps with 400 atoms

Performance: 1.045 ns/day, 22.956 hours/ns, 6.050 timesteps/s, 2.420 katom-step/s
93.3% CPU use with 72 MPI tasks x 1 OpenMP threads

MPI task timing breakdown:
Section |  min time  |  avg time  |  max time  |%varavg| %total
---------------------------------------------------------------
Pair    | 3643.8     | 6171.4     | 7847       |1105.2 | 74.68
Bond    | 0.021014   | 0.045311   | 0.069245   |   5.8 |  0.00
Neigh   | 0.044479   | 0.072564   | 0.097163   |   3.8 |  0.00
Comm    | 404.92     | 2080.4     | 4608       |1903.4 | 25.17
Output  | 1.9419     | 1.9486     | 2.3376     |   3.3 |  0.02
Modify  | 8.9055     | 9.1766     | 9.4023     |   3.8 |  0.11
Other   |            | 1.188      |            |       |  0.01

Nlocal:        5.55556 ave           8 max           3 min
Histogram: 10 0 8 0 16 0 16 0 14 8
Nghost:        384.111 ave         391 max         374 min
Histogram: 1 4 5 2 9 16 8 14 8 5
Neighs:              0 ave           0 max           0 min
Histogram: 72 0 0 0 0 0 0 0 0 0
FullNghs:      478.972 ave         713 max         243 min
Histogram: 10 4 4 8 8 7 9 13 3 6

Total # of neighbors = 34486
Ave neighs/atom = 86.215
Ave special neighs/atom = 0
Neighbor list builds = 1564
Dangerous builds = 0
unfix npt_equ


write_restart restart.equil
System init for write_restart ...
quit
