4/geom.data (written by ASE) 

400 	 atoms 
3  atom types
0.0         21.517338432134  xlo xhi
0.0      21.519399059504146  ylo yhi
0.0      21.927845359696207  zlo zhi


Masses 

1            6.94000000    # Li_atom 
2           30.97376199    # P_atom 
3           32.06499999    # S_atom 

Atoms 

     1   0   2   0.0      7.9926245912925475      14.985125229755301      6.7568027860309234
     2   0   3   0.0      6.1748353568516752      15.651115244812141      5.8354928538883764
     3   0   3   0.0      9.6589295820266994      14.605758014694322      5.5727744248430886
     4   0   3   0.0      9.2254297773012777      16.116126897540326      8.0657407721024388
     5   0   3   0.0       7.460931155151548      13.241519613227061      7.6934303225988163
     6   0   2   0.0      13.473656441661131      19.333365273244272      15.287011454495849
     7   0   3   0.0      15.118083826060895      20.219654920639233      14.401471673996983
     8   0   3   0.0      11.689308094610181       20.20086847349447      14.851308256302186
     9   0   3   0.0      13.395100512372938      17.187086839297038      15.238871511680117
    10   0   3   0.0      14.190646899640965      20.087585056476271      17.104650248682471
    11   0   2   0.0      18.859461203490589      6.2050500463742653      2.2429204038156052
    12   0   3   0.0      19.355873995119971      6.5534686399999087     0.29256093249567028
    13   0   3   0.0      18.911111198675112        4.30057585238296       2.847887077151503
    14   0   3   0.0      20.046256155957305      7.3312595117789163       3.523807871433843
    15   0   3   0.0      16.849205915690249      6.9401046692478241      2.5143859379667122
    16   0   2   0.0      8.1396834716974578      19.436130776228062      15.507336640628935
    17   0   3   0.0      9.2301252992363416      20.370266520180699      14.150417076684564
    18   0   3   0.0      6.8894721714018221      18.140819092123092      14.556935332306026
    19   0   3   0.0      9.0841581823587099      18.449494545572421      17.020104307151982
    20   0   3   0.0       6.573628875172763        20.6471366501769      16.122721900554044
    21   0   2   0.0       8.091854464956679      10.978159695629357      10.697798178571039
    22   0   3   0.0      6.6984443638116913       10.27506340328663      11.929459601598703
    23   0   3   0.0      7.4612237399963437      10.150840622468413      8.9473989000837921
    24   0   3   0.0      7.9796107617576952       13.00663768000592      11.010329611413082
    25   0   3   0.0       10.15090958526314      10.509373963149045      11.129256276599097
    26   0   2   0.0      8.1009740901529934      6.2776918618643327      15.461526146552558
    27   0   3   0.0      6.3020994112333426      6.2120730950644525      14.438633888030916
    28   0   3   0.0         9.5345934032296      7.5118185114103317      14.570807938441613
    29   0   3   0.0      8.0469966403244033      7.2517400334403463        17.3029035341048
    30   0   3   0.0      8.7387695779368482      4.3486326944193046      15.749097583424476
    31   0   2   0.0      18.844039490937288      10.895547899011291      15.380837178958918
    32   0   3   0.0      19.092358507027576      10.535827588284739      13.279320337246052
    33   0   3   0.0      18.033872810741382      9.2818423642528085      16.510834906895401
    34   0   3   0.0       20.52562113674032      11.411449398008394      16.280120449709862
    35   0   3   0.0      17.375286657122309      12.288438255322198      15.520768322870762
    36   0   2   0.0      13.436777485395712      6.3964492915818738      19.886607392342469
    37   0   3   0.0      12.936917414381494      8.2712885098923898      18.959928606558211
    38   0   3   0.0      14.764828328065173      5.1931134188305084      18.853025244518772
    39   0   3   0.0      14.486205693736535      7.1530715492703187      21.487823938982999
    40   0   3   0.0      11.695728909849858      5.4185495357611275      20.305581294948269
    41   0   2   0.0       2.678506415484045      6.6030077685268758      6.6837064885531721
    42   0   3   0.0      3.9713732302082065      8.0493726412412361      5.7178385863304317
    43   0   3   0.0      2.0735641352210328      5.3798606510107705      5.2017403045583412
    44   0   3   0.0      3.5958736986195801      5.4386936568568274       7.988181586621562
    45   0   3   0.0     0.80654699155130705      7.2566212098533658      7.1194566139217734
    46   0   2   0.0      2.5953928032634224       10.83189875667834      15.337487824447987
    47   0   3   0.0     0.94012771874115775      11.840307677217764      14.786959274004769
    48   0   3   0.0      4.3247875443426365      10.825599657318376      14.105915328005414
    49   0   3   0.0      3.5023537376691021      11.417710903213734        17.1781258345226
    50   0   3   0.0      1.7112825514422332      9.0526598756475316      15.513155687749229
    51   0   2   0.0      18.837887541715986      15.086736213529003      6.7532213021394654
    52   0   3   0.0      18.636895773867643       17.23332489055397      6.4800109416344727
    53   0   3   0.0      18.977200232341612      14.079740684712066      5.0029317002643845
    54   0   3   0.0      20.420312094008484      14.643303433020556      7.8914357670282955
    55   0   3   0.0      17.005686070604639      14.681114663774618      7.6672941526815324
    56   0   2   0.0      8.1840361011585259      2.0670520296523622      11.010380584304984
    57   0   3   0.0      9.7313648647591648      2.6526888690404791      9.7377297333228814
    58   0   3   0.0      7.1058341973253576       1.091166469788551      9.4290053516012371
    59   0   3   0.0      8.9241428621867556      1.4510192999864544      12.802866144261248
    60   0   3   0.0      6.2979209119717012      2.9803715619149727      11.727402150660328
    61   0   2   0.0      2.7184020570464758       10.76306590545393      10.830055463135821
    62   0   3   0.0      1.6556452411950979      10.039293808384199      9.2945735076585745
    63   0   3   0.0      1.3690978889757719      12.347487644475143      10.704158834342106
    64   0   3   0.0      2.2194760703071541      9.8023572220205022      12.510512434167245
    65   0   3   0.0      4.6886950683345781      11.124874570866721      10.646346695374412
    66   0   2   0.0      13.510381058024395      14.916940176940104      2.2390188117655021
    67   0   3   0.0      13.578224225672558      15.062937128900405     0.20120397365046855
    68   0   3   0.0      11.618778376420408       14.55487578648532      2.8997570731497162
    69   0   3   0.0      14.743520119746677      13.417423997802491      2.9145260839733504
    70   0   3   0.0      14.012835879177475      16.740560796110948      3.1160222700752871
    71   0   2   0.0      13.498347776948791      19.261741734750878       19.87239104221182
    72   0   3   0.0      12.465770800322664      20.347870224363273      18.161344089963638
    73   0   3   0.0      14.708086949753545      17.830961601164798      19.072703550320146
    74   0   3   0.0      14.499347585454226      20.735000341552237      20.842455000408979
    75   0   3   0.0      11.837156321815971      18.429977924495351      20.753841596664209
    76   0   2   0.0      18.916824987322475      6.4082443856628162      10.857504816735855
    77   0   3   0.0      19.849069224253331       7.095027593464728      9.2118268104724272
    78   0   3   0.0      16.854913292961978      6.3216568831042572      10.537245467045906
    79   0   3   0.0      19.574790541550136      4.5783269204860932      11.494473583555052
    80   0   3   0.0      19.211056763037025      8.0462086762971357      12.114580263161354
    81   0   2   0.0      13.424218759047404      6.4908967942496787       10.90610246225317
    82   0   3   0.0      12.803971824415143      8.3327543492971099      10.300803068612135
    83   0   3   0.0      14.884733821402136      5.7303313418586335      9.6819068464232974
    84   0   3   0.0      14.270476494543136      6.4818978256964366      12.729991711036362
    85   0   3   0.0      11.925209661523018      5.0590625311164574       10.69956523977722
    86   0   2   0.0      13.415596722524175      6.3822508063832553      15.167058293076186
    87   0   3   0.0      12.369236567991106      8.0168234806625414      14.254040541758384
    88   0   3   0.0      12.316332871200791      4.6173792108408476      14.839760618742263
    89   0   3   0.0      15.448316554487196      6.1953414121997703      15.171533468142593
    90   0   3   0.0      12.887755711384704      6.8484999798392163      17.121332696067871
    91   0   2   0.0      2.6862630337874864      10.861914077574045      2.1717373392957326
    92   0   3   0.0       2.008468413560355      12.747656015691522      1.5686955264913243
    93   0   3   0.0      4.3354572031466185      10.392766306410547      1.0760382141574829
    94   0   3   0.0      3.1617342486633948      10.974301548195278      4.2821801184590536
    95   0   3   0.0      1.3128185906325442      9.4116615317506387      1.9779998894389716
    96   0   2   0.0      18.892635168875906       10.76813940002506      2.1835388599616228
    97   0   3   0.0      19.891778536106852      12.300660853083436      3.0634354082531923
    98   0   3   0.0      17.776570617474732      10.614718781346083     0.43542521768111903
    99   0   3   0.0      20.646181719593532      9.7748698963506691      1.9174088400756784
   100   0   3   0.0      17.138577511077411      9.9141795665318089      3.3458326831711016
   101   0   2   0.0       18.90836572069356      10.814681085676687      6.7391990535110793
   102   0   3   0.0      18.944019610247569      10.079901563351141      4.8402554281829469
   103   0   3   0.0      17.190733293193819      11.929038638233639      6.9474519525367597
   104   0   3   0.0      18.589498691752933      9.0579260151749246      7.8595873310498998
   105   0   3   0.0      20.630920437512096      11.752740015816352      7.0782557645919972
   106   0   2   0.0      13.450405692793593      10.751081466750342      6.5652814880497106
   107   0   3   0.0      14.405566721461867      10.362334707867072      4.7495058681408553
   108   0   3   0.0      11.467912639534294      11.428365044409601      6.2370705624871761
   109   0   3   0.0      13.330153413306835      9.0497642437420556      7.7248765902814815
   110   0   3   0.0      14.392945575498679      12.242810730612142      7.6398636399450064
   111   0   2   0.0      2.6938637204217302      6.6326865132857611      19.766107020827384
   112   0   3   0.0     0.96122651191037156      7.4927293676989857      19.278588841103719
   113   0   3   0.0      3.8338885777840042      5.9952347442214515      18.100183381801632
   114   0   3   0.0      4.0854022513342887      7.5108379440299693      20.896523655167353
   115   0   3   0.0      1.6752121725357723      4.9079922197093131      20.559338451162983
   116   0   2   0.0      2.7256963716271967      10.885352976940641      19.910786607953785
   117   0   3   0.0      2.1975605738519013      9.9952390711819845       18.10842621290438
   118   0   3   0.0      2.0718070456275415      9.5784110525950474      21.244171760683855
   119   0   3   0.0      4.7539674492510349      11.282294363673657      19.855841893903854
   120   0   3   0.0      1.5072542574602872      12.564323627750332      19.834028292030975
   121   0   2   0.0      8.2496285581824118       10.60505404854924      15.743834210959598
   122   0   3   0.0      7.4421883176036188      10.319228991103913       13.83557202426149
   123   0   3   0.0      6.8890026423035851      10.095414309981292      17.191632820180782
   124   0   3   0.0      10.127281168324032       10.16492116003697       15.66483425485333
   125   0   3   0.0      8.0872072069109642      12.559889291928709      15.635922959086617
   126   0   2   0.0      2.5803684975178767      2.0216455279232397      15.077552688220779
   127   0   3   0.0      2.4765017895739181      3.3808939009651788      13.574180360887368
   128   0   3   0.0      3.7653943334192448     0.40416952526163652      14.539890464554666
   129   0   3   0.0      4.2964552609489788      2.6305387891872045      16.489613770617559
   130   0   3   0.0     0.80257013051889714      1.5755078743124218      15.943930044985777
   131   0   2   0.0      8.0337859089804837      15.203553763758187      15.270833387439618
   132   0   3   0.0      9.7285799484113653      16.127919222855322      14.452275766525505
   133   0   3   0.0      7.3853512486158239      13.981401179457384       13.56612004947795
   134   0   3   0.0        8.91065168017548      14.055680598122303      17.093114915710895
   135   0   3   0.0      6.3820146694875932      16.010538078263824      16.119067701277949
   136   0   2   0.0      18.811643157686571      6.3944071118891008      15.494587336988227
   137   0   3   0.0      17.627823344660438      6.0862656959718393      13.823946400662646
   138   0   3   0.0       19.79525764483936      4.6031329050046397      15.746497530516685
   139   0   3   0.0      20.232840559768078      7.8446562525397852      15.214592490718452
   140   0   3   0.0       17.59858335610182      6.6876295588871768       17.10447037531566
   141   0   2   0.0      7.9674510085212109       14.95800789971339       19.74315387455545
   142   0   3   0.0      9.2258618567066701      15.795703183386381      18.119253633023472
   143   0   3   0.0      8.4692442386054196      12.985530400166409      20.097966780120167
   144   0   3   0.0      8.7175211016217915      16.387461137104498      21.064525127469476
   145   0   3   0.0      5.9979988548810477      15.342661247435451      19.401391876646738
   146   0   2   0.0      7.9883287500820961      19.234116952196363      11.015084773670962
   147   0   3   0.0      8.0821427042079179      18.009683348638873      9.4154148172261323
   148   0   3   0.0       6.661742917898902      18.215513972952419      12.052620200297843
   149   0   3   0.0       9.901651300718223      19.392053627013699      11.529927632362387
   150   0   3   0.0      7.0542298074801986      20.991154583060709      10.988278213952158
   151   0   2   0.0      2.7277735703154988      19.352026483594134      2.1817578592040063
   152   0   3   0.0      3.9739525507368874      19.027517109193038     0.58851220796436055
   153   0   3   0.0     0.81552005257090421      18.920913344613052      1.6863455580607074
   154   0   3   0.0      3.3259305018584717      18.111314591533993      3.7273977796506328
   155   0   3   0.0      2.8490653437443449      21.324359068160941      2.7651909058931712
   156   0   2   0.0      13.466706021865052      11.004171575746843      15.434955572154395
   157   0   3   0.0      14.081378556200079      9.2355863301432048      14.230654272883221
   158   0   3   0.0      11.852071357090908      11.830298917650861      14.373224235288019
   159   0   3   0.0      13.168258170870308      10.527768016843023      17.409970913659716
   160   0   3   0.0      15.106294071887381      12.108688774301619      15.101902162218355
   161   0   2   0.0      7.8611706311316603      15.240383196433925      2.0971322988375611
   162   0   3   0.0      9.4347693113441178      16.289276643192526      1.2274431351970942
   163   0   3   0.0      7.3931701535387733      13.801526490102978     0.66810970388546553
   164   0   3   0.0      8.7911025201768993      14.208848524309772      3.5710849641661251
   165   0   3   0.0      6.3819766406106169      16.393125448462623      2.7984496298480699
   166   0   2   0.0      8.0485817194959246      19.563148472688077      6.4161879979868086
   167   0   3   0.0      9.4194455118973153      20.540841288865352      5.2854318401618698
   168   0   3   0.0      8.1842751579623467      17.669814084230836      5.7551487390660077
   169   0   3   0.0      8.8931952664453515       19.80501046291187       8.328685659016843
   170   0   3   0.0      6.1222654045517322      20.153686283346151      6.3457284954445479
   171   0   2   0.0      18.921012613999736      19.669500204613417      2.1718455058475357
   172   0   3   0.0      19.372117345987554      19.919522236375187     0.20821238680645207
   173   0   3   0.0      18.710087366857863      17.627074119363087      2.1373059522522451
   174   0   3   0.0       20.21605773312023      20.129758753767728      3.6099004197905615
   175   0   3   0.0      17.021566853258054      20.224320169665795      2.7544983118451514
   176   0   2   0.0      8.1520595465130956      10.646745416108615      2.2320389790959352
   177   0   3   0.0      6.7380745149190746       12.12390029397684      1.5856678478819466
   178   0   3   0.0       7.978928683305627      9.0558824518821428      1.0162749651849441
   179   0   3   0.0      10.224309490686094      11.149057257818782      2.3934175119273151
   180   0   3   0.0      7.3504379698870261      10.169935380034349      4.1508516922816829
   181   0   2   0.0        2.69291478307861      6.1761986723523998      10.856354414789347
   182   0   3   0.0      2.8162201194717427      7.9353565619979882      9.8035851469027087
   183   0   3   0.0      3.8758452092563287      4.6080757280958222      10.358263926668224
   184   0   3   0.0      3.7177310057410562      6.8787429140336345      12.663793580361649
   185   0   3   0.0     0.73738507487801386      5.6663746301541078      11.111105531517904
   186   0   2   0.0      18.932635983872562      15.319539758853157      1.9792999446746029
   187   0   3   0.0      16.820485773995124      15.666795406478428      2.4834808636596235
   188   0   3   0.0      19.233111152310926      14.873260266177306   0.0032992691653371585
   189   0   3   0.0      20.701614890287633      15.938030110620081      3.0046745540127811
   190   0   3   0.0      18.238271154188674      13.392798502793847      2.7225069222876841
   191   0   2   0.0      2.6429940444082232      15.180663828413373      15.486416296407675
   192   0   3   0.0      3.0344855578688206      16.288062696700031      13.805735839847353
   193   0   3   0.0     0.59582866242512589      15.034371905274739      15.722791752240854
   194   0   3   0.0      3.6134928854220316      13.326206661308573      15.262579154541907
   195   0   3   0.0      3.6355330716234424      16.021945647510023      17.041289938903535
   196   0   2   0.0      2.6711813259459434      6.5438272585134909      15.423697070843854
   197   0   3   0.0     0.93264392488685877      6.8393284783465029      16.502565576009637
   198   0   3   0.0       1.720217628711012      6.3906267109831933      13.596909545848913
   199   0   3   0.0      4.5298415136598758      7.5737440035023127      15.808300810280125
   200   0   3   0.0      3.2352943264854339      4.6845470806256388      15.924943052526146
   201   0   2   0.0       13.48241560880583      19.325149055111396      10.779694802062348
   202   0   3   0.0      14.230013321758811      19.457803664786159      8.8533083834045421
   203   0   3   0.0      13.180963065649049      17.287415000543685       11.34714139227847
   204   0   3   0.0      14.623274981234308      20.372590275395208      12.232746877141532
   205   0   3   0.0       11.88198356178142      20.515955555067304      10.947640897808942
   206   0   2   0.0      18.933164153466876      19.413604235464021      10.947816769822774
   207   0   3   0.0      19.527670973021564      18.885278558422193      9.0734087640789021
   208   0   3   0.0       17.56454134264407      17.736844972078099      11.528645774088247
   209   0   3   0.0      20.365695742661647      19.573225042022102      12.405945355404327
   210   0   3   0.0      17.908663935818765      21.213184196275972      10.948491545651692
   211   0   2   0.0      8.1517752592188817      6.4590614862125104      6.4575810294593925
   212   0   3   0.0      8.9040232148734635      8.4226479318996503      6.6130869882126291
   213   0   3   0.0      8.1032912777807944      5.8449664117076221      4.4930141583315146
   214   0   3   0.0      9.1551973829256834      4.9742865964226919      7.5128823105293625
   215   0   3   0.0      6.0855300027554184      6.4901265927861926      6.9484182736897555
   216   0   2   0.0      2.7125965994332342      15.285359363077557      10.778988197727662
   217   0   3   0.0     0.92314041149196246      16.254175962263918      10.945851730965853
   218   0   3   0.0      3.3077065530173084       14.61464179515758      8.9421028812115555
   219   0   3   0.0      4.5468705631270545      16.100004351626051      11.542558778420739
   220   0   3   0.0      2.4673281419682911      13.714897033668798       11.99996350722968
   221   0   2   0.0      8.0258575059227155      6.5222302513978105      11.014307490827701
   222   0   3   0.0      6.7529077153037802      8.0864581696806486      10.918211909209882
   223   0   3   0.0       9.349498108450625      6.6990049282765103      9.2973720895077232
   224   0   3   0.0      9.3030789590863527      6.1573327365792041      12.524117896853259
   225   0   3   0.0      6.9496321384443291      4.8317291416428407      10.681500528467838
   226   0   2   0.0       13.38882311404593      19.467268346829481      2.3057923711953108
   227   0   3   0.0      13.412906435614508      20.963132594134315       0.940951295611405
   228   0   3   0.0      14.110337528774386      17.784725145130981      1.1098432204054791
   229   0   3   0.0      14.595643424478673      19.796828300069663      3.9362676944007302
   230   0   3   0.0      11.446834057446276      18.966957548361556      2.8623889955047281
   231   0   2   0.0      2.6711401686727099      6.6066860135022241       2.058790861418637
   232   0   3   0.0      4.1440613091250693      7.9383992458641499      1.8541964068106689
   233   0   3   0.0       3.020951802299161      5.0265520269819355      0.8814346759553553
   234   0   3   0.0      3.5547046298534424      5.5936837160587931      3.6566651885446038
   235   0   3   0.0     0.71865933824498351      6.9457290460234189      2.2503908917404147
   236   0   2   0.0      2.5393816922347905      1.8089675590951502      19.947367040302478
   237   0   3   0.0      2.9593938856252624      2.9369455235808477      18.110636647589725
   238   0   3   0.0     0.58122792430741288      1.4719876242707248      19.532482921630063
   239   0   3   0.0      3.9388138281200251     0.39575934580172567      20.201629788637177
   240   0   3   0.0        2.88275104669968      3.1624071732456036      21.469184401111566
   241   0   2   0.0      2.8033979880934949      1.8825561494734195      6.7299810037247445
   242   0   3   0.0      1.6281255579845506      3.4903412964250169      5.8627357088714884
   243   0   3   0.0      4.3460284705996743      1.4406940755637325      5.4363862534031497
   244   0   3   0.0      3.4316528536727446      2.3723864217262061      8.6058538258983663
   245   0   3   0.0      1.0595802084640962     0.87485441455919055      6.4475331773664024
   246   0   2   0.0       13.47020675948214      2.1454513384751683      6.5802444348016218
   247   0   3   0.0      12.105891979189709      3.5387509610911732      5.7937164533040058
   248   0   3   0.0      14.901128349877457      1.6704594090511657      5.2335446981742342
   249   0   3   0.0       14.31963335407802      3.0691975751909459      8.2258097060786213
   250   0   3   0.0      12.445679244533823     0.48106402832985262      7.1877570193486342
   251   0   1   0.0      20.429712542689593      10.016850766963747        10.4493830066478
   252   0   1   0.0      9.6881233870534462      8.2967260159084049      10.822773072396368
   253   0   1   0.0      7.9943313065129997      20.033325123074317       1.419119660188483
   254   0   1   0.0       5.098750757927383      14.838418881421648      14.310066257483538
   255   0   1   0.0      2.5779668312796229      8.9005651368169101      7.5455451737460484
   256   0   1   0.0      4.1882790789465467      4.3340557924316201      19.700153137851341
   257   0   1   0.0      16.156204731986971      19.578944467281094      10.458523354258672
   258   0   1   0.0      18.467429471782314      16.391774529192084       4.254758056714004
   259   0   1   0.0      12.658875645923743      14.237669568542685      17.230057046456544
   260   0   1   0.0      17.374551237407832      5.4276431272204997      6.6164144507424725
   261   0   1   0.0      15.757438955781293      2.1790367523884413      12.754712602017081
   262   0   1   0.0      6.3276905947708819      13.121067457921523      4.4663588823101508
   263   0   1   0.0      8.3720642241621483      1.2966743981844568      5.8611540366149457
   264   0   1   0.0      12.769151085646655      15.291968115776207      6.5232203571689595
   265   0   1   0.0      6.1472138502837588      12.785542482966235      17.678732207652342
   266   0   1   0.0      12.187739950033629       6.710037198491003       1.682525604002213
   267   0   1   0.0      10.532904208998346      6.4520526986816078      16.375436119599097
   268   0   1   0.0      5.4140118503465118      6.3039226451594326      11.470221306477333
   269   0   1   0.0      9.4095835531686216      15.746018693958069      11.141905700301528
   270   0   1   0.0      6.4451216213097382      3.3201687406636484       8.269808485952213
   271   0   1   0.0      6.0678630041354475      7.4560143090331579      3.9869478783039805
   272   0   1   0.0      9.0061651346670573      18.009540507875332      13.284797023119003
   273   0   1   0.0      18.126673341980148      8.4831161342910875      14.205031707872717
   274   0   1   0.0      4.5707055317894296      17.587141803243991      15.108641153979523
   275   0   1   0.0       16.25858102100651      10.270963417080214      11.372838119950316
   276   0   1   0.0      3.4955532881699631      8.6301803265399588       14.05684685243228
   277   0   1   0.0      18.210663269232207       17.67855437773401      16.132583798542356
   278   0   1   0.0      12.078160208099305      7.1062503212586963      4.5866887378067949
   279   0   1   0.0      6.6407383934174034      17.103636161358654      7.8025820492588149
   280   0   1   0.0      5.1073700521248639      8.6087039001799024      18.354123544266521
   281   0   1   0.0      12.644200180246234      12.175222543999515     0.89067915142478848
   282   0   1   0.0      17.870715807978929        12.3799562341938      20.908254503235295
   283   0   1   0.0      7.3871313082286827      3.8602310772706607      20.029094224952129
   284   0   1   0.0      9.7461118950615298      17.932585550926373      19.439225570512427
   285   0   1   0.0      9.5524557635485312      12.158769608547379       13.06726433141654
   286   0   1   0.0      11.937269606936116      13.883479434815692       10.39085048931573
   287   0   1   0.0      15.521151581630528      13.603251275671765      5.6771560738201039
   288   0   1   0.0      16.429492576526506      13.715679586138062     0.76606824474177149
   289   0   1   0.0      4.1661625423720201      3.5672056818746896      4.4263252748098996
   290   0   1   0.0      9.9088960511162085      9.7925723872340278      19.288718920031691
   291   0   1   0.0      9.4974285231243947      4.7015177264882508      10.628559428581276
   292   0   1   0.0      5.1799217658881238      12.894202759988914      12.713186737401617
   293   0   1   0.0      8.9403604354338757      17.164576596575486      3.5642398492548191
   294   0   1   0.0      5.9195847337688132      2.9567191167484563      14.622206279283342
   295   0   1   0.0      15.947126498495916      9.1269554521774339      9.2049963656591078
   296   0   1   0.0      17.129942989245023       13.18892905815299      11.740234488443855
   297   0   1   0.0       10.62056712817842      9.6580717874511297      8.2894957982891846
   298   0   1   0.0      1.3775525358841314       4.195423633433303      9.0332586829384933
   299   0   1   0.0      12.348688996525016      18.432065070786859      6.5751537407719383
   300   0   1   0.0      1.4401300198989009      12.974483639647522       16.95251969765695
   301   0   1   0.0       18.55709792247891      8.4933310312065782      1.7315205375362563
   302   0   1   0.0      11.453723972471813      18.598939106743828      16.632198600285058
   303   0   1   0.0      4.5188110098790917      12.566650145352838      2.4459809859307899
   304   0   1   0.0      16.360863095816605      8.9470725115609682       19.24814332110634
   305   0   1   0.0      1.4941031949970085      7.7281610671161243      4.5221288677629889
   306   0   1   0.0      6.3638051082903129      9.2893171275994089      6.5309234132292637
   307   0   1   0.0      16.774517989009979      18.053719544945984      4.3049500404995538
   308   0   1   0.0      4.8932588604916454      9.0554605877582155      12.494811433007202
   309   0   1   0.0       4.257169442943983      1.4095112684377231      11.384569967449416
   310   0   1   0.0       11.75520799046669       18.59713577225007      12.988957445979196
   311   0   1   0.0      2.5513750456092752      20.791117315493985      12.321991227482107
   312   0   1   0.0      9.9219544958646395      13.495569564371786      1.3918767682480964
   313   0   1   0.0      6.2302936217339173        18.1738819038505      18.073537727060589
   314   0   1   0.0      18.973243241217624      2.9350839957408623      7.1242180750586197
   315   0   1   0.0      11.735909443126303      16.924853242285018      1.2083806532852306
   316   0   1   0.0      17.111317906812584       20.46198174917912      6.4677718655877303
   317   0   1   0.0      3.4746888681633448      18.612129342671334      8.8429206276687786
   318   0   1   0.0     0.43568902024361228       4.399132208110708      18.019305981624367
   319   0   1   0.0      14.154138808983109      4.5208859670371337      16.650591871263813