 64
 energy=-528902.31457990687 cutoff=6.00000000 nneightol=1.20000000 pbc="T T T" Lattice="6.60550000       0.00000000       0.00000000       0.00000000      11.71400000       0.00000000       0.00000000       0.00000000      20.73780000" Properties=species:S:1:pos:R:3:forces:R:3:Z:I:1:map_shift:I:3:n_neighb:I:1:force:R:3
 P               1.73986000      1.87812000     13.12210000      0.40107321      0.17804904      0.95903331      15       0       0      -1      44      0.18734505      0.20854724      0.99757925
 P               6.05992000     11.19440000      8.19793000     -0.30298663     -0.18385408     -1.48093501      15      -1      -1       0      42     -0.28682273     -0.20893295     -1.43499757
 P               4.08796000      7.77997000     12.40510000      1.62740234      0.43074782      0.94681075      15      -1      -1      -1      43      1.66517813      0.54246046      0.84939948
 P               2.05890000      5.16820000      7.71256000      1.72778953      0.11224662      0.27040784      15       0       0       0      45      1.78167356      0.18306089      0.27305221
 P               4.10083000      1.55230000      2.65397000      0.67271394     -1.09291402      0.50569653      15      -1       0       0      42      0.52449833     -0.99001085      0.50439222
 P               2.54553000     10.91540000     18.35390000      0.21109052     -0.52168219     -0.18761683      15       0      -1      -1      48     -0.14743414     -0.53684422     -0.23541405
 P               0.57514000      7.68185000      2.51338000      1.02321562      0.70178626     -0.73335076      15       0      -1       0      45      1.05818821      0.42023817     -0.73903630
 P               6.24359000      4.85903000     18.02780000      0.38343250      1.21810198     -0.36950382      15      -1       0      -1      44      0.57396067      1.36588409     -0.06536740
 S               1.26969000      3.86690000      6.42659000     -0.64233748     -0.20094077     -0.87639572      16       0       0       0      41     -0.64829752     -0.24847582     -0.87600865
 S               5.18954000      9.02467000     13.75250000     -0.60323289     -0.25785305     -0.03509087      16      -1      -1      -1      44     -0.68620573     -0.34160959     -0.16383828
 S               3.68322000      6.23030000      6.72639000     -1.14259040     -0.27948511      0.59571585      16      -1      -1       0      47     -1.19176900     -0.25888095      0.72103907
 S               2.43603000      6.93260000     13.17400000     -1.02308046      0.14002282      0.42385891      16       0      -1      -1      47     -1.00523329      0.04942840      0.55828689
 S               3.04889000      4.06707000      9.21606000      0.20881916      0.62060887     -0.18241776      16       0       0       0      44      0.19420596      0.52317425     -0.26689317
 S               3.73263000      8.98270000     10.75460000      0.24259378     -0.96774730      0.31767728      16      -1      -1      -1      44      0.22221372     -0.98575448      0.37110328
 S               0.69437500      6.35974000      8.68933000      0.34886509      0.53725251     -0.30036141      16       0      -1       0      47      0.27940797      0.50211271     -0.20344848
 S               5.39629000      6.07453000     12.36910000     -0.02928860      0.32267741     -0.97225515      16      -1      -1      -1      48     -0.02658121      0.38610672     -0.80266170
 S               1.51871000      9.36661000     17.41250000      0.25138912     -0.10654797     -0.03180119      16       0      -1      -1      42      0.33315817     -0.12952633     -0.10244659
 S               4.69783000      2.32558000      4.51227000      0.45814667     -0.86883716      0.07163586      16      -1       0       0      45      0.48767919     -0.92095524      0.16294880
 S               3.87463000     11.70790000     17.01190000      0.42237462      0.49475333     -0.31176340      16      -1      -1      -1      43      0.45492554      0.50680054     -0.35584790
 S               3.16096000     11.45130000      3.06539000      0.18209690      0.36579123      0.31806766      16       0      -1       0      45      0.23010786      0.44654478      0.31828906
 S               3.64212000     10.33300000     19.96230000     -0.07958842     -0.28811833      0.08700662      16      -1      -1      -1      40     -0.01368863     -0.27276577      0.06262840
 S               2.80173000      2.87797000      1.92650000     -0.88730579      1.13765891     -0.88312176      16       0       0       0      47     -0.88257160      1.08287416     -0.76556416
 S               1.22926000      0.68874600     18.81330000     -0.36779441      0.65501998      0.28297241      16       0       0      -1      39     -0.30016665      0.66073090      0.34269352
 S               5.74669000      1.32575000      1.38211000     -0.53136718      0.43036096      0.64989812      16      -1       0       0      45     -0.47076136      0.41855254      0.70440559
 S               5.71725000      3.97373000     16.30330000     -0.38877538     -0.28459251      0.00172391      16      -1       0      -1      45     -0.49491605     -0.33613762     -0.31036137
 S               1.49800000      8.63645000      4.15705000     -0.24208033     -1.04440709     -0.33220540      16       0      -1       0      43     -0.27823155     -0.94929368     -0.33255844
 S               1.73796000      5.25132000     18.13820000     -0.25464651      0.17368875     -0.86357781      16       0       0      -1      43     -0.26339108      0.14126523     -0.91742901
 S               5.43332000      6.62185000      3.02236000      0.41747999     -0.26104533     -0.34246924      16      -1      -1       0      47      0.36744245     -0.22570953     -0.30576272
 S               5.77508000      3.80303000     19.66290000     -0.44310548     -1.31265769      0.69780924      16      -1       0      -1      46     -0.46026865     -1.31673737      0.64266934
 S               6.59514000      9.30122000      1.35142000     -0.36465004     -0.48916809     -0.11475913      16      -1      -1       0      45     -0.34138090     -0.45557334     -0.07716772
 S               5.25323000      6.66284000     18.31230000     -0.15338050      0.39888417     -0.20139328      16      -1      -1      -1      47     -0.19578395      0.37207011     -0.29681142
 S               1.99589000      6.49055000      1.31882000     -1.22065828      0.68726519      1.11769849      16       0      -1       0      43     -1.27692049      0.68581768      1.16632123
 S               4.94804000      9.65745000      7.11716000      0.46305133      0.65114785      0.56873608      16      -1      -1       0      43      0.53421665      0.65250792      0.56859771
 S               2.24442000      3.62370000     14.30600000     -0.22508162     -0.58881099     -1.31345135      16       0       0      -1      45     -0.21157439     -0.59407078     -1.43477584
 S               0.67306200      0.39854400      6.69656000     -0.68998906     -0.38654409      0.79180016      16       0       0       0      47     -0.71557269     -0.29961056      0.78980259
 S               0.73671000      0.54008200     14.35970000     -0.67291720      0.50921731     -0.03160280      16       0       0      -1      46     -0.54276060      0.56883162     -0.17043112
 S               0.65681100     10.47730000      9.68366000      0.20499941      0.14891217      0.12810736      16       0      -1       0      45      0.14654520      0.13725662      0.05505655
 S               0.40717200      2.21761000     11.57560000      0.33840107      0.22555172     -0.38189511      16       0       0      -1      43      0.45049691      0.18847225     -0.32511936
 S               4.80861000      0.92174000      9.02157000      0.26905525     -0.80487670     -0.27048723      16      -1       0       0      47      0.17492303     -0.76690875     -0.18179796
 S               3.43240000      1.00726000     12.41900000     -0.19072177      0.27556626     -0.10345282      16      -1       0      -1      48     -0.19316184      0.27713843     -0.18480693
 Na              6.15144000      7.20907000      5.52301000      0.08807174      0.07725508      0.74487678      11      -1      -1       0      43      0.09891741      0.12885295      0.63196730
 Na              4.73378000      6.19069000      9.44590000     -0.22704276      0.15521964      0.08926601      11      -1      -1       0      45     -0.15557674      0.15409461      0.02982623
 Na              5.35695000      9.44435000     17.37030000      0.07208113     -0.02728843      0.05632073      11      -1      -1      -1      46      0.13607341     -0.04046845      0.06579974
 Na              5.21963000      0.97056100     19.28700000     -0.30068908      0.00402795      0.12041663      11      -1       0      -1      42     -0.33856423      0.02817450      0.11009059
 Na              2.57262000     10.60550000     14.96460000      0.45016183     -0.53800000     -0.41603066      11       0      -1      -1      43      0.46944650     -0.59547776     -0.33845609
 Na              1.45437000     11.74510000      0.83464300      0.35019348     -0.21156288      0.07015369      11       0      -1       0      44      0.36235751     -0.23768637      0.04374533
 Na              3.45720000      4.52114000      4.40579000     -0.75962841      0.66609342      0.14214515      11      -1       0       0      44     -0.74373610      0.70612591      0.09417868
 Na              1.20068000      4.81897000     11.21690000      0.21961793      0.13878822      0.12356175      11       0       0      -1      46      0.24741035      0.14178439      0.09884515
 Na              5.39942000      2.85147000      7.40218000      0.16799863      0.40645301     -0.21457814      11      -1       0       0      40      0.21182818      0.35928535     -0.27726562
 Na              3.25402000     -0.06947800      6.41983000      0.29918448      0.30229646     -0.38063505      11       0       0       0      47      0.29781343      0.36234778     -0.52004971
 Na              1.24361000      7.57509000     19.52630000     -0.10901827      0.23025989      0.31123548      11       0      -1      -1      45     -0.13681949      0.20631916      0.30819413
 Na              3.43023000      6.34558000     16.07680000      0.02212475     -0.15634056     -0.09737509      11      -1      -1      -1      44     -0.01531396     -0.13697429      0.03319279
 Na              2.36628000      9.04792000      8.23561000      0.21480934     -0.51104168     -0.20357769      11       0      -1       0      45      0.22720069     -0.51370393     -0.25836872
 Na              1.68855000      3.31885000     19.71580000      0.57923287     -0.73927839      0.91293650      11       0       0      -1      43      0.62833718     -0.77477053      0.94674632
 Na              2.25698000      1.64561000      9.51489000     -0.51104860     -0.68566609      0.20391362      11       0       0       0      42     -0.49936693     -0.68988566      0.20520537
 Na              1.92712000      2.23972000     16.48100000     -0.16118128     -0.24667024      0.07062779      11       0       0      -1      42     -0.17241193     -0.18152378      0.20054593
 Na              4.23424000      5.34470000      0.29172200     -0.02323688      0.40841911      0.27532603      11      -1       0       0      44      0.10254748      0.40635309      0.24008764
 Na              0.08602600      6.00105000     14.92920000      0.22769304      0.30235686     -0.52024596      11       0      -1      -1      43      0.20044005      0.29100554     -0.45299340
 Na              5.55670000     11.20210000     11.88430000      0.13382422     -0.04910253     -0.01669181      11      -1      -1      -1      46      0.13689738     -0.14415480     -0.08734433
 Na              6.37693000     10.85590000      4.00892000      0.01226817      0.21942732      0.07967034      11      -1      -1       0      41      0.02301065      0.15515985      0.06248761
 Na              6.33212000      3.79391000      3.08220000      0.67004043      0.03976753     -0.31708782      11      -1       0       0      45      0.70180432      0.06038282     -0.34533751
 Na              5.43084000      2.63724000     13.51470000     -0.78174586      0.19446942      0.55473034      11      -1       0      -1      49     -0.78541480      0.21082724      0.65838021
 Na              0.77910400      8.24875000     11.30810000     -0.06978636     -0.15227508      0.23855829      11       0      -1      -1      47     -0.06728224     -0.04698987      0.21778827
 Na              3.72604000      8.96371000      2.20058000      0.03766388     -0.30283673     -0.24226543      11      -1      -1       0      42      0.03772929     -0.33115568     -0.20698496
 64
 energy=-528902.54354287393 cutoff=6.00000000 nneightol=1.20000000 pbc="T T T" Lattice="6.60550000       0.00000000       0.00000000       0.00000000      11.71400000       0.00000000       0.00000000       0.00000000      20.73780000" Properties=species:S:1:pos:R:3:forces:R:3:Z:I:1:map_shift:I:3:n_neighb:I:1:force:R:3
 P               1.37756000      1.66404000     12.80070000     -1.91574622      0.70771736      0.75457778      15       0       0      -1      41     -1.88829487      0.50773908      0.94083921
 P               5.67914000     10.69080000      7.72139000      0.48793139      0.65165917      1.41243451      15      -1      -1       0      45      0.57486114      0.54145152      1.29635228
 P               4.29983000      7.49948000     13.01560000     -1.78567825     -0.75039975      2.02360688      15      -1      -1      -1      45     -1.42733989     -0.42475913      1.91866830
 P               2.09749000      5.21936000      7.46767000      0.61634811     -0.31944617     -0.18549976      15       0       0       0      45      0.58088091     -0.18006016     -0.30199184
 P               3.63930000      1.70660000      3.11200000      0.51748264     -1.85653541     -0.41952305      15      -1       0       0      44      0.31281329     -1.68699186     -0.29735262
 P               2.67060000     11.52750000     18.05560000      0.13455820      1.34292768      0.95900387      15       0      -1      -1      49      0.02625947      1.47021981      0.89032479
 P               1.02590000      7.80788000      2.36606000     -0.11755968      0.42889671     -0.44582570      15       0      -1       0      46     -0.12524673      0.35282357     -0.54705694
 P               0.08486600      5.28191000     18.45480000     -2.82976725      1.04691607     -0.36552075      15       0       0      -1      42     -2.84766440      1.04327116     -0.29684981
 S               1.17415000      4.09594000      5.96308000     -0.32953018      0.85974347      0.02366163      16       0       0       0      42     -0.25442292      0.79434883      0.13573052
 S               5.49188000      8.77030000     14.26530000     -0.18536517     -1.00382323     -0.38100906      16      -1      -1      -1      47     -0.28441919     -1.15256294     -0.26881974
 S               3.47637000      6.64194000      6.81631000     -0.32937782     -0.15820385      0.25432975      16      -1      -1       0      44     -0.36846865     -0.24875682      0.23376077
 S               2.88976000      6.12228000     13.98690000      0.79928382      1.15558269      0.26461903      16       0      -1      -1      42      0.66032922      1.01731133      0.29370800
 S               3.04769000      3.73942000      8.52957000      0.59911622     -0.25395854      0.84622004      16       0       0       0      46      0.63097020     -0.28183650      0.81555725
 S               3.06878000      8.83355000     12.10880000      0.54987065      0.81261743     -0.72710690      16       0      -1      -1      42      0.32369684      0.66596957     -0.83884436
 S               0.72004400      6.05626000      8.76293000     -0.23782797     -0.01757182     -0.02625960      16       0      -1       0      46     -0.19515862     -0.11190064     -0.00159949
 S               5.15002000      6.00024000     11.95080000      1.27726674      0.54266479     -0.91600105      16      -1      -1      -1      39      1.26491611      0.40577089     -0.91039735
 S               1.71880000     10.01410000     17.21280000     -0.87415547     -1.38786585     -1.00354324      16       0      -1      -1      41     -0.81503085     -1.37720304     -0.92140989
 S               4.62201000      3.02394000      4.22681000      0.98012625      0.62269600      1.08513283      16      -1       0       0      47      0.99019768      0.46801235      1.01830811
 S               3.84382000      0.88034000     16.62520000     -0.48717682     -0.65475379      0.77453408      16      -1       0      -1      43     -0.50072618     -0.61911372      0.77584077
 S               2.89866000      0.00333200      4.11001000      0.00952294      0.58041065      0.17825584      16       0       0       0      48      0.03489378      0.58896408      0.12074952
 S               3.80917000     10.65270000     19.55930000      0.18297542      0.49886862     -0.29724790      16      -1      -1      -1      43      0.21363732      0.37254860     -0.16982746
 S               2.07763000      2.65162000      2.29506000     -1.57739116      0.63921109     -0.66477268      16       0       0       0      41     -1.43688931      0.45598880     -0.60428383
 S               1.20818000      1.16283000     19.01600000      1.17117225     -0.39491045     -0.87859446      16       0       0      -1      41      1.13301773     -0.39802297     -0.82798205
 S               4.86213000      0.91265700      1.63864000     -0.04392308      0.16186393      0.14115005      16      -1       0       0      45     -0.00046658      0.08688647      0.19829420
 S               5.73181000      4.55331000     16.73180000      0.43296237     -0.43679252      0.26290481      16      -1       0      -1      43      0.46317770     -0.43069017      0.17327534
 S               2.23083000      8.03012000      3.99372000      0.05295025     -0.36200975     -0.42701322      16       0      -1       0      43      0.09301789     -0.23284043     -0.31304925
 S               2.02876000      5.38699000     18.41260000      1.91507031     -0.42175248     -0.29102427      16       0       0      -1      44      2.00170751     -0.36337798     -0.41338360
 S               5.79326000      7.04789000      2.98254000     -0.16819120     -0.44082022     -0.19575235      16      -1      -1       0      45     -0.13753171     -0.38718690     -0.13155962
 S               5.78345000      4.31859000     20.04570000      0.22536491     -0.30280126      0.14163699      16      -1       0      -1      43      0.14262103     -0.21760603      0.20516410
 S               0.40740400      9.60822000      1.38865000      0.35953859     -0.93661832      0.10442513      16       0      -1       0      44      0.35204507     -0.91110572      0.19497017
 S               6.00583000      7.32333000     18.52650000     -0.17183744     -0.28528474     -1.16806478      16      -1      -1      -1      44     -0.15853622     -0.38762013     -1.18949625
 S               1.90852000      6.42507000      0.99574700     -0.24435217      1.10417980      0.81599309      16       0      -1       0      44     -0.13469435      1.07628461      0.86435594
 S               5.62946000      9.67218000      6.04566000      0.41000999     -1.02820932     -1.70280844      16      -1      -1       0      42      0.34103905     -0.93101001     -1.61771606
 S               1.63130000      3.50457000     13.80840000     -0.43859058     -0.67361154     -0.04774440      16       0       0      -1      43     -0.42261528     -0.44997536     -0.06593403
 S               6.67234000      0.77723900      7.34109000     -0.55356113      0.18701791     -0.34615116      16      -1       0       0      43     -0.52993154      0.22268804     -0.30908939
 S               0.52765700      0.32329400     14.17180000      0.02199373      0.27690372     -0.28141810      16       0       0      -1      41      0.06954050      0.40413738     -0.49708222
 S               0.19381900      9.87883000      9.26609000      0.37548767     -1.15718826      0.37041805      16       0      -1       0      42      0.16158468     -1.04654446      0.24750301
 S               6.64367000      1.89321000     11.22170000     -0.69333121      0.43664666      0.44844518      16      -1       0      -1      45     -0.65081248      0.49142511      0.45176484
 S               3.86203000     10.60700000      8.57917000     -1.28079271      0.62041405     -0.06103855      16      -1      -1       0      47     -1.07198445      0.55940971      0.01935603
 S               3.06292000      1.25844000     11.90880000      2.20686562     -0.79748348     -0.36955931      16       0       0      -1      43      2.12644614     -0.72131327     -0.41066652
 Na              6.20446000      6.84679000      5.69418000      0.08967269     -0.19803470      0.27938893      11      -1      -1       0      47      0.10956619     -0.14460063      0.21115860
 Na              4.82358000      7.70022000      9.55264000     -0.35791442      0.05876386     -0.47791859      11      -1      -1       0      41     -0.39958840      0.09291309     -0.40682567
 Na              5.53552000     10.19920000     17.35050000      0.09583657      0.05701723     -0.01104272      11      -1      -1      -1      43      0.09575279      0.01053803     -0.03615863
 Na              5.16651000      1.74442000     18.90960000     -0.14963929      0.07733868      0.22389191      11      -1       0      -1      47     -0.10064323      0.12993361      0.15897519
 Na              2.66005000     10.44990000     14.56490000      0.12248482      0.01799531     -0.00145632      11       0      -1      -1      43      0.16175004     -0.05925608      0.01001886
 Na              1.82578000      0.27375200      0.71759100      0.23355656     -0.17271972      0.33779173      11       0       0       0      46      0.17111527     -0.23080019      0.24744470
 Na              2.75054000      5.04908000      3.83307000      0.00294244      0.19269432      0.16012816      11       0       0       0      42     -0.02909631      0.27139701      0.13409074
 Na              2.25109000      4.31629000     11.27520000      0.06000652     -0.03162818     -0.26849990      11       0       0      -1      44      0.05681019      0.05094908     -0.23862440
 Na              6.28918000      3.33568000      8.39902000     -0.20289481      0.14986728      0.06524745      11      -1       0       0      42     -0.23870497      0.17180131      0.03872248
 Na              2.77472000      1.62589000      6.87157000      0.21187500     -0.13335070     -0.52008058      11       0       0       0      43      0.19918754     -0.09042751     -0.53256183
 Na              1.74421000      8.12503000     19.59100000      0.24390638      0.45090279     -0.08662798      11       0      -1      -1      44      0.23648045      0.42577503     -0.12241397
 Na              3.95584000      6.63919000     16.42060000     -0.18147498      0.04388457      0.27713743      11      -1      -1      -1      42     -0.16313895      0.05575822      0.35790224
 Na              2.41629000      9.28539000      6.38478000      0.03252100      0.25091210      0.38088636      11       0      -1       0      41      0.03292747      0.24700624      0.29154416
 Na              2.30905000      3.98809000     20.76350000      0.08038819     -0.33660211     -0.43966485      11       0       0      -1      40      0.07722407     -0.34602200     -0.56310709
 Na              1.47076000      0.29212400      9.64996000      0.68993959      0.43382883      0.24429733      11       0       0       0      44      0.67324078      0.40863871      0.25388524
 Na              1.22658000      2.39616000     16.39880000      0.11327820      0.00508323     -0.14229727      11       0       0      -1      37      0.10111069      0.03162097     -0.06555617
 Na             -0.40948300      4.26955000      2.15602000     -0.02146060     -0.13803408      0.13905061      11       0       0       0      46     -0.04331316     -0.05522379      0.07131348
 Na              0.22828900      6.36760000     15.06410000      0.47272148      0.13645484     -0.29274715      11       0      -1      -1      43      0.42586932      0.12663672     -0.24928851
 Na              5.31755000     10.76690000     12.21450000      0.00542183      0.46734560     -0.25986330      11      -1      -1      -1      46     -0.01914513      0.34813618     -0.23946675
 Na              4.45164000      9.57458000      2.83426000     -0.08409786      0.28667117      0.11480476      11      -1      -1       0      44     -0.10094426      0.20851780      0.10461149
 Na             -0.16309300      0.49034200      4.38281000      0.08958642      0.09408417      0.02112851      11       0       0       0      46      0.08281793      0.09449914      0.06128415
 Na              5.18549000      3.29392000     13.64270000     -0.08676013     -0.13597333     -0.25642619      11      -1       0      -1      44     -0.03092307     -0.06937143     -0.18287141
 Na              0.93970100      7.90425000     11.00870000     -0.17808321     -0.46899239     -0.10877243      11       0      -1      -1      44     -0.11232907     -0.47323644     -0.03677051
 Na              5.42122000      7.40930000      0.16388400     -0.34355493     -0.14440583      0.96177327      11      -1      -1       0      47     -0.43344522     -0.16995577      0.87256278
 64
 energy=-528902.42269448622 cutoff=6.00000000 nneightol=1.20000000 pbc="T T T" Lattice="6.60550000       0.00000000       0.00000000       0.00000000      11.71400000       0.00000000       0.00000000       0.00000000      20.73780000" Properties=species:S:1:pos:R:3:forces:R:3:Z:I:1:map_shift:I:3:n_neighb:I:1:force:R:3
 P               0.53157900      1.58325000     12.91490000      0.57882548      0.39131043      0.28357246      15       0       0      -1      45      0.36801001      0.28915069      0.48853539
 P               5.94705000     11.25990000      7.85981000     -0.53144480     -0.43832184      1.27408550      15      -1      -1       0      41     -0.50063218     -0.55876245      1.30799598
 P               4.65100000      7.66657000     13.04360000      0.82107506     -2.17022233      1.09873066      15      -1      -1      -1      46      0.68564352     -1.90756695      1.26741662
 P               2.64082000      5.21653000      7.52457000     -0.01743788      0.00066919     -0.54473198      15       0       0       0      45      0.03528384      0.19618440     -0.67500874
 P               3.70860000      1.62885000      2.81989000      3.71983026      1.07826582     -0.73520193      15      -1       0       0      45      3.83080001      1.26867298     -0.62069317
 P               2.64825000     10.62750000     17.98180000      1.77870268      1.60561948      0.86347768      15       0      -1      -1      46      1.81747597      1.30623518      0.60340258
 P               1.12963000      7.68048000      2.13273000     -1.20265783      1.80138515      0.09029221      15       0      -1       0      45     -1.10987508      1.63452200      0.19367028
 P               5.91675000      4.57421000     18.31760000     -1.78362858      1.08517358      2.12886847      15      -1       0      -1      46     -1.60370634      1.01677711      2.00964018
 S               1.57227000      4.32405000      5.96692000      0.59285391      0.23966551      0.18375978      16       0       0       0      45      0.58127941      0.22550510      0.19228286
 S               5.18989000      8.33513000     14.88690000      0.20463173      0.61164626      0.70989858      16      -1      -1      -1      42      0.20203148      0.48669195      0.44450720
 S               4.04690000      6.65532000      6.84873000     -0.13510849     -0.42810567      0.24806743      16      -1      -1       0      42     -0.14319911     -0.48632337      0.24627093
 S               3.62169000      5.79632000     13.55540000     -0.34837979      1.22942322     -0.69696228      16      -1       0      -1      43     -0.28002696      1.06994644     -0.65782250
 S               3.37046000      3.87342000      8.87499000      0.51808741     -0.10044883     -0.23051338      16      -1       0       0      43      0.54804129     -0.12451123     -0.10060336
 S               3.61296000      8.96822000     11.94710000     -1.20748329      0.55724709     -0.53739723      16      -1      -1      -1      45     -1.15002111      0.50376152     -0.56825026
 S               1.26773000      6.34557000      8.54580000     -0.53510537      0.93637488      0.54486734      16       0      -1       0      41     -0.56853302      0.86883355      0.61918058
 S               6.31545000      7.16917000     11.99620000      0.57829222     -0.14416473     -0.15136795      16      -1      -1      -1      47      0.64180705     -0.23823665     -0.28208529
 S               1.73641000      9.43313000     16.71960000     -1.01440794     -1.49544436     -1.41913019      16       0      -1      -1      45     -0.94671592     -1.38272158     -1.32869091
 S               4.96735000      3.13775000      3.79450000     -0.64549645     -0.78353120      0.35976948      16      -1       0       0      48     -0.65319001     -1.01233637      0.25248489
 S               3.58659000      0.62380700     17.06140000      0.19945843     -0.85880333      0.02442492      16      -1       0      -1      48      0.01950828     -0.77297759      0.10105928
 S               2.68500000      0.38662300      3.94208000     -1.00431263     -0.55721123      1.23742936      16       0       0       0      44     -1.09692290     -0.60515794      1.23052931