84
Lattice="12.375 0.0 0.0 -2.5754428754180116 11.867764321701818 0.0 -2.730270011857891 -4.41833150365321 11.2807594330424" Properties=species:S:1:pos:R:3:forces:R:3 energy=-20136.429790775066 pbc="T T T"
Li       4.06536000       5.04781000       1.06727000       0.17232202       0.03837783       0.04801072
Li       2.34442000       2.62429000       1.32604000       0.03120445       0.14488115      -0.59781645
Li      -0.60733100       3.36996000       1.41688000      -0.17627946       0.03408769      -0.11945859
P        0.94772000       4.34831000       3.21614000       0.80815789      -0.11367156      -0.10239727
S        1.75326000       5.24746000       1.54094000      -0.25160250       0.09617160      -0.22861015
S        1.31629000       2.36874000       3.20303000      -0.80305836      -0.41243117       0.35414323
S        4.06342000       0.33537100       4.50883000      -1.01863456      -0.84191853       0.37506379
S        4.25486000       1.61267000       1.08716000       0.45284120      -0.38103183       0.46570803
Li       1.78894000       1.65706000       5.35743000       0.40833438       0.12008697       0.11423360
Li      -0.43889200      -2.22633000       8.82966000       0.47328353      -0.54137200      -0.12086499
Li       4.73880000      -2.17407000       5.80884000      -0.00281947      -0.30033673      -0.13214545
Li       1.24697000       0.39525300       8.08702000       0.34757201      -0.45227453       0.21473494
Li      -1.39506000       0.09024200      10.45560000      -0.25428416      -0.25740445      -0.14081983
P        2.29722000      -2.29871000      10.62170000      -1.64954985       1.17693893      -0.72365498
P       -1.10010000       0.05725300       6.05106000       0.45862773       1.71614605      -0.56311427
S        0.88118500      -0.39099900       5.86096000      -0.04482204      -0.10289812      -0.00625961
S       -1.67862000      -2.50616000      10.74910000      -0.52290068      -0.02961191       0.22066339
S       -1.05048000       2.39641000       6.50255000      -0.42181313      -0.38724259      -0.57698846
S        1.71553000      -3.15941000       8.91963000      -0.36955597      -0.15461072      -0.31756569
S       -1.79190000      -0.77357000       7.70441000      -0.92948259      -0.16157275       0.09117132
S        1.79494000      -0.08529100      10.30930000       0.00732096      -1.02629336      -0.04145595
S        1.80494000       2.63273000       7.76196000       0.53023346       0.55436327       0.19948572
Li       3.38724000       6.41461000       2.90164000       0.31735486       0.40367245      -0.16954317
Li      -1.89257000       9.32707000       5.26850000       0.12765630      -0.20209694      -0.44913881
Li      -1.50715000       6.73458000       4.27332000      -0.11342422       0.19090287      -0.63250526
P        1.93104000       7.35703000       5.18740000      -0.04555378      -1.03026366       0.17149875
P       -1.38467000       9.57754000       0.68679900       0.64728499      -0.15485240       0.57805392
S        2.69714000       8.38615000       3.67341000      -0.22201322       0.46123174       0.04086357
S       -1.05352000       4.70541000       3.24501000      -0.09319683       0.02510219       0.62438829
S        2.15909000       5.04063000       4.78792000      -0.24664490       0.63437137      -0.06954423
S        0.00503700       7.78174000       5.62802000       0.11327355      -0.16689339       0.31237258
S       -0.78471200      10.57600000       2.31273000       0.43559835       0.07044514       0.11066851
S        2.54041000      10.00260000       0.75007100       0.96861735       0.39088738       0.20937367
S       -1.08431000       7.55113000       0.88080300       0.27057056       0.04639041      -0.18777281
Li      -1.41227000       4.67818000      10.39100000      -0.08740671      -0.24889358      -0.04300376
S       -3.33560000       5.91618000      10.19580000      -0.07578789       0.19812098      -0.22773649
Li       0.38308700       4.58116000       6.11775000      -0.08132039       0.09464951      -0.08742316
Li      -3.27923000       4.70430000       8.10871000       0.12378422       0.25299398       0.19728383
P       -0.12891700       3.15619000       8.23584000      -0.26819177      -0.65639801      -0.08571081
S       -0.95052800       2.27891000       9.81776000       0.04866687       0.61789625       0.49813427
S       -3.15018000       7.11802000       6.79168000       0.22897319       0.43037336       0.22669159
S       -0.54586100       5.12310000       8.09061000       0.05512137       0.04805340       0.32882815
Li       9.88974000       2.75848000       4.60423000      -0.14333694       0.30259879      -0.19158832
S       10.33190000       1.68348000       0.89270500       0.11852066      -0.72113736       0.50175387
S       10.21780000       0.43082900       4.40564000       0.18766122      -0.98665261       0.20479094
Li       8.00556000       1.55405000       1.23607000       0.12393437      -0.42556334       0.58894357
Li       5.99041000       1.31372000       4.27076000       0.62081908       0.30120782      -0.43388394
P        7.10310000       4.35289000       3.21041000       0.03571828       0.65334919      -0.72974130
S        8.08183000       5.21577000       1.68136000       0.24838091       0.45808008      -0.68417364
S        7.70888000       2.43809000       3.37314000       0.20444075      -0.39790238       0.23368911
Li       5.91591000      -2.66601000       9.17159000      -0.72865372      -0.11361551      -0.65895214
Li       8.17660000       0.07784100       7.82767000       0.22639129      -0.01471082       0.12887192
P        8.63417000      -2.28072000      10.50650000       0.16980645       0.26773771      -0.20049720
P        5.08537000       0.11737300       6.25484000       0.12718373       1.20555222       0.77689122
S        6.99576000      -0.38404500       5.79566000      -0.34567042      -0.21067722       0.06448070
S        4.26583000      -2.47929000      10.67480000       1.55302087       0.40081853       0.08668012
S        5.05485000       2.40455000       6.49567000      -0.29436406      -0.45809191      -0.06391660
S        8.01965000      -3.20802000       8.83943000       0.32869137      -0.39274578      -0.60612780
S        4.25317000      -0.87946900       7.81127000       0.27704871       0.47324188      -0.68092068
S        8.30791000      -0.23829800      10.30810000       0.41461301       0.56660943      -0.11036409
S        8.15423000       2.59122000       7.98787000      -0.47249831      -0.18625791      -0.06174453
Li       6.10434000       0.06732000      10.90180000       0.21639433      -0.24705679      -0.24080129
Li       3.70016000       0.87676900      11.20460000      -0.22576394       0.09890057       0.13801013
Li       9.04322000       7.53018000       1.03924000      -0.36403530       0.12353071      -0.08641992
Li       5.90302000       8.67056000       3.35975000      -0.02888326      -0.93488242       0.08678913
Li       6.86642000      10.11570000       1.03251000       1.72388147       0.06883152      -0.59151931
S        5.30602000       7.47319000       0.96065500      -0.58623157       0.46182104       0.55717708
P        8.06067000       7.33667000       5.13713000      -0.52579985      -0.83757439       0.32966993
P        4.50957000       9.81511000       0.60969400      -0.95458735      -1.94171562       0.72860898
S        8.95216000       8.26923000       3.63514000       0.12242102       0.37955550      -0.11398832
S        5.12686000       4.76574000       3.27387000       0.15035554      -0.79753820       0.61781758
S        8.08485000       5.10248000       4.89434000       0.08977778      -0.07275502       0.68401577
S        6.14204000       7.76663000       5.56016000      -0.02242156       0.15156859      -0.02925555
S        5.38851000      10.51260000       2.35422000      -1.43864483       1.84149505       0.51176266
S        8.99652000       9.99395000       0.60133100      -0.92349243      -0.10224814      -0.28661835
Li       5.04911000       4.87947000      10.11640000       0.23569508      -0.22215411       0.21965551
Li       7.18625000       7.22270000       8.14115000       0.09332179      -0.21986017       0.32807893
Li       2.84372000       3.04515000       9.92760000      -0.10235870       0.34526624      -0.29798520
P        6.19717000       3.06430000       8.11139000       0.07460981      -0.30895198       0.56636260
S        5.22322000       2.23665000       9.84516000       0.49254829       0.66802248      -0.29325077
S        2.93880000       7.08094000       6.86817000       0.30127415       0.38116759       0.23995540
S        5.72283000       5.08334000       8.01562000       0.35381259      -0.33191965      -0.11423206
S        2.91079000       5.75414000      10.24930000      -0.49375311       0.41692803      -0.45384959
Li       5.55575000       5.29402000       5.74457000      -0.18829834       0.23356981      -0.42199259
