84
Lattice="12.375 0.0 0.0 -2.5754428754180116 11.867764321701818 0.0 -2.730270011857891 -4.41833150365321 11.2807594330424" Properties=species:S:1:pos:R:3:forces:R:3 energy=-20140.283314090928 pbc="T T T"
Li       2.64661000      -1.22290000       4.32960000       0.55070510      -0.49386778       1.47976346
Li       1.68312000       0.71214300       1.49517000       0.34233879       0.02680118      -0.40883677
Li      -0.63270000       0.71448600       2.91870000       1.27453800       0.63495295      -1.33880992
P        0.80350700       4.44738000       2.80075000      -0.09358456      -0.89633953       0.92042871
S        4.50064000       1.46910000       1.07824000      -1.30378533      -0.67405480       0.27028156
S        1.40483000       2.48248000       3.30565000       0.15484212      -0.58751507      -0.93202798
S        4.65589000      -0.18029900       4.18513000      -0.35169966       0.23592597      -1.36406947
Li       4.47999000       2.51741000       3.10481000      -0.00190930       0.53463930       0.58763231
Li       0.85474100       3.11134000       5.43234000      -0.37839337      -0.81310418       0.60587069
S       -1.19413000       4.53661000       3.18146000       0.23100591      -0.76667519       0.42925956
Li       2.40352000       0.58911600       8.32041000       0.27513375      -0.11960772      -0.78557126
S       -2.03362000      -1.14550000       7.54083000      -1.45163096      -0.71471937       0.29483148
S        1.86321000      -0.12780700      10.38800000      -0.72806802       0.53648947       0.62983954
Li      -1.44434000      -0.30436500       9.57869000       0.23396987       0.17214564       0.62908621
P        2.44307000      -2.03231000      10.71270000       2.69395150       0.76088456      -1.30938365
P       -1.04304000      -0.02944100       6.29985000      -0.92266094       0.63515710      -0.99629116
S        2.23755000      -3.02865000       8.96380000      -0.35967728      -1.16031057      -0.06978025
S       -1.91320000      -2.40109000      10.97040000       0.49528960       0.40511638      -0.49085445
S       -1.22897000       2.06896000       6.50770000       0.12717345       1.90722684      -0.20363394
Li       0.56616500      -2.81213000       7.26978000      -0.04442455       0.47781535       0.10278910
S        0.81726100      -0.55447400       6.55720000       2.38341469      -0.05282074      -0.82540999
Li       1.38673000       7.77755000       1.91194000      -0.17009184       0.28711972      -0.26954160
S       -1.03670000       7.68646000       1.05915000       0.03650247      -1.29862975       0.06176510
S        1.45233000       5.41457000       1.19038000      -0.30159400      -0.15108882      -0.05204736
P        1.85509000       7.19284000       5.09097000      -1.69384276      -1.23118869       0.69470333
P       -1.73826000       9.53203000       1.05243000       0.51417949       2.43393532      -1.17098477
S        2.93705000       8.07152000       3.70023000      -0.28737220      -0.28850040      -0.77719769
Li      -2.10034000       6.47132000       2.86772000      -0.60151010       1.02513277      -0.35369843
S        1.75870000       4.94589000       4.61425000       0.78050619       2.11167839      -0.39424525
S        2.47374000       9.54992000       0.46779000       1.07956816       0.20395790       0.00493395
S       -1.35752000      10.57810000       2.84381000      -1.70094980       0.27471569      -1.20906280
Li       3.68841000       5.74770000       0.76521400       0.62177142      -0.04700491       0.18043539
Li      -1.01526000       7.11389000      10.63810000      -0.01034098      -0.16418705      -0.03572548
Li       1.43455000       5.36434000       8.07015000      -0.01185998       0.70694024       0.47908599
Li      -3.02952000       3.81561000       9.65773000      -0.01634605      -0.12057960       0.21383916
S       -3.27330000       6.13188000      10.89670000      -0.18030889      -0.26087030      -0.25643772
Li      -1.59706000       5.99932000       5.90278000       0.05799535      -0.24918206       0.28337773
P       -0.33101800       3.12236000       8.18315000       0.93836009      -1.19129494      -0.40074294
S       -1.21418000       4.85919000       8.35101000       0.10838331       1.94230029      -1.57737436
S       -3.35464000       7.26162000       7.04030000      -1.07161780      -0.85890221      -1.25649606
S        1.77612000       3.12294000       7.70763000      -0.93737485      -0.65645252       0.01414724
S       -0.05791000       7.78647000       5.54874000       0.43852735       0.38444883      -0.83366786
S       -0.90427700       2.24664000       9.81294000      -0.20219001      -1.79438935       1.56465100
S       10.38660000       0.41614500       4.42014000      -0.68831825      -1.26245536       1.37607447
S       10.24100000       1.24287000       0.92901400       1.51387223       0.50396810       1.96769456
Li       9.59877000       3.49888000       1.54737000      -0.15956678      -0.34427071       0.13262573
Li       6.00645000       0.11340000       2.30076000       0.37851215       0.14616362      -0.35324849
S        7.43710000       2.48431000       3.21616000      -0.31647297       0.35999198      -0.10420784
Li       8.60043000       0.32378100       0.19023300      -1.74213836      -0.81886910      -0.63060676
P        6.97527000       4.48683000       2.99953000       1.50108819       0.31953619      -0.61957775
Li       8.78007000       2.30909000       5.20141000      -0.18095064      -0.22778123       0.32917988
S        8.05891000       2.16325000       8.07080000      -0.27952211       0.90867979       0.69994890
Li       7.47771000      -1.01060000       8.28973000       0.74323702       0.38623574      -0.36816089
Li       5.64405000      -0.17764800       9.87548000      -0.57091603      -0.03200818       0.33507851
P        8.47837000      -2.26940000      10.64870000       0.28609179      -0.44558709       1.43823705
P        5.49759000       0.35698300       5.92553000      -0.74387517       1.32440301       1.59043094
S        7.38794000      -0.13055100       6.07765000       1.51266124      -0.27577755      -1.07700015
S        4.58291000      -2.05078000      10.93470000      -0.54566779      -0.09629193      -0.19737125
S        5.01242000       2.42368000       6.28859000       0.36570034      -1.01999725       0.24799421
S        7.95043000      -3.26375000       8.99796000      -0.46601810      -0.20146444      -1.30686602
S        4.63523000      -0.82447900       7.33995000      -1.09847194       0.06116449       1.02712537
S        7.85902000      -0.34815400      10.78660000       0.25713243       0.86726806      -1.31396741
Li       5.50974000      -2.74061000       8.35481000      -0.38245828      -0.88705167       0.27046977
S        8.23046000       5.39488000       1.63979000      -0.88594661      -0.16949072      -0.17861454
Li       7.91490000       7.97215000       0.64584200      -0.39015462      -0.66367526       0.10655217
S        8.79028000      10.03420000       0.22044500       0.47312258      -0.69271895       1.32037357
Li       4.00813000       9.96465000       4.28237000       0.63220084       0.38702302       0.30424841
S        8.61252000       8.16782000       3.58659000       0.24128158      -0.74758681       1.27489641
P        4.55074000       9.42788000       0.47871400       0.54864102       1.69645603       0.25157730
Li       7.79668000      10.13590000       2.76665000      -0.50361535       0.30814980      -0.03115046
S        5.29583000      10.57480000       2.22856000      -0.21651208      -0.33333890      -0.73122277
S        7.78576000       5.10531000       4.85030000       0.99162564      -1.02136610       1.47610735
S        5.30883000       7.59568000       0.61726900      -0.19585018      -1.34842174       1.15374038
P        7.77699000       7.16288000       5.24002000      -0.83470041       1.95375558      -0.02221227
S        5.09196000       5.10040000       3.04049000      -1.06129585      -0.59682246      -0.47659974
Li       4.73082000       5.64432000       5.34387000       0.09960042      -0.07039218       0.37533632
Li       7.27409000       6.63461000       9.24512000       0.02872179       0.18461601       0.04468680
S        3.02130000       5.79180000      10.14610000      -1.37103048      -0.21816839       0.41855657
Li       2.97701000       3.16858000       9.74613000       0.49440257       0.40420416      -0.49116709
S        5.93565000       4.98425000       7.96975000       0.00906777      -0.58900477       0.48828437
S        2.84320000       6.70856000       6.74656000       0.90588140       0.36870134       1.00154752
P        6.28375000       3.04359000       8.43411000      -0.38942391      -0.16907986      -1.42862576
S        5.81935000       7.70496000       5.55265000       1.28113082       0.12026592       0.15613024
S        5.16739000       2.08280000       9.90264000       0.24200714       0.82491994      -0.59105291
84
Lattice="12.375 0.0 0.0 -2.5754428754180116 11.867764321701818 0.0 -2.730270011857891 -4.41833150365321 11.2807594330424" Properties=species:S:1:pos:R:3:forces:R:3 energy=-20140.28331559361 pbc="T T T"
Li       2.64661000      -1.22290000       4.32960000       0.55072464      -0.49387241       1.47975934
Li       1.68312000       0.71214300       1.49517000       0.34232490       0.02678935      -0.40885631
Li      -0.63270000       0.71448600       2.91870000       1.27455600       0.63494472      -1.33882072
P        0.80350700       4.44738000       2.80075000      -0.09357221      -0.89632616       0.92040814
S        4.50064000       1.46910000       1.07824000      -1.30378481      -0.67405480       0.27027745
S        1.40483000       2.48248000       3.30565000       0.15483955      -0.58752021      -0.93202078
S        4.65589000      -0.18029900       4.18513000      -0.35169863       0.23592391      -1.36406998
Li       4.47999000       2.51741000       3.10481000      -0.00190416       0.53463879       0.58763951
Li       0.85474100       3.11134000       5.43234000      -0.37841291      -0.81309646       0.60586812
S       -1.19413000       4.53661000       3.18146000       0.23099922      -0.76667365       0.42926007
Li       2.40352000       0.58911600       8.32041000       0.27511421      -0.11961080      -0.78556098
S       -2.03362000      -1.14550000       7.54083000      -1.45163096      -0.71472554       0.29483560
S        1.86321000      -0.12780700      10.38800000      -0.72806648       0.53648947       0.62983697
Li      -1.44434000      -0.30436500       9.57869000       0.23398684       0.17213844       0.62909392
P        2.44307000      -2.03231000      10.71270000       2.69396024       0.76088918      -1.30936462
P       -1.04304000      -0.02944100       6.29985000      -0.92265734       0.63516635      -0.99628910
S        2.23755000      -3.02865000       8.96380000      -0.35967882      -1.16031314      -0.06979208
S       -1.91320000      -2.40109000      10.97040000       0.49529217       0.40511793      -0.49085393
S       -1.22897000       2.06896000       6.50770000       0.12717242       1.90722684      -0.20363446
Li       0.56616500      -2.81213000       7.26978000      -0.04444563       0.47780147       0.10279270
S        0.81726100      -0.55447400       6.55720000       2.38341520      -0.05282229      -0.82541153
Li       1.38673000       7.77755000       1.91194000      -0.17010059       0.28712846      -0.26955034
S       -1.03670000       7.68646000       1.05915000       0.03649681      -1.29862204       0.06176870
S        1.45233000       5.41457000       1.19038000      -0.30160017      -0.15109859      -0.05203553
P        1.85509000       7.19284000       5.09097000      -1.69384893      -1.23118457       0.69470590
P       -1.73826000       9.53203000       1.05243000       0.51419698       2.43392555      -1.17098631
S        2.93705000       8.07152000       3.70023000      -0.28737169      -0.28849629      -0.77720026
Li      -2.10034000       6.47132000       2.86772000      -0.60148850       1.02515282      -0.35369689
S        1.75870000       4.94589000       4.61425000       0.78050259       2.11167428      -0.39424165
S        2.47374000       9.54992000       0.46779000       1.07956611       0.20395944       0.00493292
S       -1.35752000      10.57810000       2.84381000      -1.70095238       0.27471723      -1.20906537
Li       3.68841000       5.74770000       0.76521400       0.62176833      -0.04699977       0.18042305
Li      -1.01526000       7.11389000      10.63810000      -0.01034766      -0.16417779      -0.03573936
Li       1.43455000       5.36434000       8.07015000      -0.01185124       0.70694898       0.47909371
Li      -3.02952000       3.81561000       9.65773000      -0.01636507      -0.12057343       0.21382785
S       -3.27330000       6.13188000      10.89670000      -0.18031146      -0.26086773      -0.25643360
Li      -1.59706000       5.99932000       5.90278000       0.05799226      -0.24916972       0.28338236
P       -0.33101800       3.12236000       8.18315000       0.93836986      -1.19130779      -0.40074294
S       -1.21418000       4.85919000       8.35101000       0.10837560       1.94230440      -1.57737333
S       -3.35464000       7.26162000       7.04030000      -1.07161986      -0.85889964      -1.25650274
S        1.77612000       3.12294000       7.70763000      -0.93737896      -0.65645457       0.01414364
S       -0.05791000       7.78647000       5.54874000       0.43853198       0.38444934      -0.83366477
S       -0.90427700       2.24664000       9.81294000      -0.20219567      -1.79438626       1.56464483
S       10.38660000       0.41614500       4.42014000      -0.68831980      -1.26245433       1.37606932
S       10.24100000       1.24287000       0.92901400       1.51387325       0.50396913       1.96768993
Li       9.59877000       3.49888000       1.54737000      -0.15958169      -0.34428460       0.13260259
Li       6.00645000       0.11340000       2.30076000       0.37852706       0.14616927      -0.35323924
S        7.43710000       2.48431000       3.21616000      -0.31647863       0.36000844      -0.10420681
Li       8.60043000       0.32378100       0.19023300      -1.74212962      -0.81885985      -0.63061139
P        6.97527000       4.48683000       2.99953000       1.50110001       0.31951510      -0.61959370
Li       8.78007000       2.30909000       5.20141000      -0.18096915      -0.22777711       0.32916805
S        8.05891000       2.16325000       8.07080000      -0.27952622       0.90868031       0.69994941
Li       7.47771000      -1.01060000       8.28973000       0.74324165       0.38622392      -0.36818352
Li       5.64405000      -0.17764800       9.87548000      -0.57089494      -0.03199121       0.33509599
P        8.47837000      -2.26940000      10.64870000       0.28607996      -0.44557886       1.43825197
P        5.49759000       0.35698300       5.92553000      -0.74387774       1.32441175       1.59042888
S        7.38794000      -0.13055100       6.07765000       1.51266329      -0.27578064      -1.07699603
S        4.58291000      -2.05078000      10.93470000      -0.54567499      -0.09629450      -0.19737485
S        5.01242000       2.42368000       6.28859000       0.36570034      -1.01999879       0.24799318
S        7.95043000      -3.26375000       8.99796000      -0.46601656      -0.20146753      -1.30686962
S        4.63523000      -0.82447900       7.33995000      -1.09847143       0.06116397       1.02712692
S        7.85902000      -0.34815400      10.78660000       0.25713500       0.86726086      -1.31397358
Li       5.50974000      -2.74061000       8.35481000      -0.38245622      -0.88706247       0.27046411
S        8.23046000       5.39488000       1.63979000      -0.88595021      -0.16949072      -0.17860631
Li       7.91490000       7.97215000       0.64584200      -0.39015051      -0.66368554       0.10656143
S        8.79028000      10.03420000       0.22044500       0.47311538      -0.69271484       1.32037203
Li       4.00813000       9.96465000       4.28237000       0.63221935       0.38701582       0.30424995
S        8.61252000       8.16782000       3.58659000       0.24128466      -0.74757755       1.27487790
P        4.55074000       9.42788000       0.47871400       0.54864565       1.69646323       0.25156753
Li       7.79668000      10.13590000       2.76665000      -0.50359375       0.30816728      -0.03114326
S        5.29583000      10.57480000       2.22856000      -0.21651260      -0.33333530      -0.73122071
S        7.78576000       5.10531000       4.85030000       0.99162615      -1.02136199       1.47610992
S        5.30883000       7.59568000       0.61726900      -0.19585070      -1.34842739       1.15374089
P        7.77699000       7.16288000       5.24002000      -0.83469887       1.95373964      -0.02218605
S        5.09196000       5.10040000       3.04049000      -1.06129739      -0.59682298      -0.47659562
Li       4.73082000       5.64432000       5.34387000       0.09960814      -0.07040040       0.37534815
Li       7.27409000       6.63461000       9.24512000       0.02870637       0.18460006       0.04468012
S        3.02130000       5.79180000      10.14610000      -1.37103510      -0.21817147       0.41855863
Li       2.97701000       3.16858000       9.74613000       0.49439177       0.40421136      -0.49117686
S        5.93565000       4.98425000       7.96975000       0.00906777      -0.58901454       0.48828643
S        2.84320000       6.70856000       6.74656000       0.90588500       0.36870236       1.00154958
P        6.28375000       3.04359000       8.43411000      -0.38941980      -0.16906546      -1.42863501
S        5.81935000       7.70496000       5.55265000       1.28112620       0.12026695       0.15613281
S        5.16739000       2.08280000       9.90264000       0.24200560       0.82491634      -0.59104879
84
Lattice="12.375 0.0 0.0 -2.5754428754180116 11.867764321701818 0.0 -2.730270011857891 -4.41833150365321 11.2807594330424" Properties=species:S:1:pos:R:3:forces:R:3 energy=-20140.283315626544 pbc="T T T"
Li       2.64661000      -1.22290000       4.32960000       0.55072413      -0.49387241       1.47975986
Li       1.68312000       0.71214300       1.49517000       0.34232490       0.02678987      -0.40885580
Li      -0.63270000       0.71448600       2.91870000       1.27455703       0.63494472      -1.33881969
P        0.80350700       4.44738000       2.80075000      -0.09357376      -0.89634158       0.92043899
S        4.50064000       1.46910000       1.07824000      -1.30378327      -0.67405480       0.27028208
S        1.40483000       2.48248000       3.30565000       0.15483800      -0.58751250      -0.93202644
S        4.65589000      -0.18029900       4.18513000      -0.35169966       0.23592494      -1.36406998
Li       4.47999000       2.51741000       3.10481000      -0.00190570       0.53463930       0.58763951
Li       0.85474100       3.11134000       5.43234000      -0.37841342      -0.81309595       0.60586709
S       -1.19413000       4.53661000       3.18146000       0.23100282      -0.76667108       0.42925544
Li       2.40352000       0.58911600       8.32041000       0.27511472      -0.11961183      -0.78556046
S       -2.03362000      -1.14550000       7.54083000      -1.45162839      -0.71472091       0.29483200
S        1.86321000      -0.12780700      10.38800000      -0.72806545       0.53648947       0.62983954
Li      -1.44434000      -0.30436500       9.57869000       0.23398736       0.17213844       0.62909392
P        2.44307000      -2.03231000      10.71270000       2.69395047       0.76088507      -1.30938365
P       -1.04304000      -0.02944100       6.29985000      -0.92265991       0.63515658      -0.99628653
S        2.23755000      -3.02865000       8.96380000      -0.35967728      -1.16030955      -0.06978283
S       -1.91320000      -2.40109000      10.97040000       0.49528909       0.40511844      -0.49085496
S       -1.22897000       2.06896000       6.50770000       0.12717448       1.90723095      -0.20363240
Li       0.56616500      -2.81213000       7.26978000      -0.04444563       0.47780147       0.10279373
S        0.81726100      -0.55447400       6.55720000       2.38341366      -0.05282177      -0.82541256
Li       1.38673000       7.77755000       1.91194000      -0.17009904       0.28712949      -0.26954983
S       -1.03670000       7.68646000       1.05915000       0.03649887      -1.29862615       0.06176818
S        1.45233000       5.41457000       1.19038000      -0.30159811      -0.15109293      -0.05204633
P        1.85509000       7.19284000       5.09097000      -1.69384842      -1.23118766       0.69470179
P       -1.73826000       9.53203000       1.05243000       0.51418824       2.43392864      -1.17098219
S        2.93705000       8.07152000       3.70023000      -0.28737169      -0.28849577      -0.77719923
Li      -2.10034000       6.47132000       2.86772000      -0.60148953       1.02515282      -0.35369638
S        1.75870000       4.94589000       4.61425000       0.78050002       2.11167376      -0.39425142
S        2.47374000       9.54992000       0.46779000       1.07957074       0.20395944       0.00493189
S       -1.35752000      10.57810000       2.84381000      -1.70095083       0.27471723      -1.20906537
Li       3.68841000       5.74770000       0.76521400       0.62176988      -0.04699874       0.18042356
Li      -1.01526000       7.11389000      10.63810000      -0.01034766      -0.16417728      -0.03574091
Li       1.43455000       5.36434000       8.07015000      -0.01185330       0.70694898       0.47909319
Li      -3.02952000       3.81561000       9.65773000      -0.01636404      -0.12057240       0.21382682
S       -3.27330000       6.13188000      10.89670000      -0.18030735      -0.26086567      -0.25643720
Li      -1.59706000       5.99932000       5.90278000       0.05799277      -0.24916972       0.28338339
P       -0.33101800       3.12236000       8.18315000       0.93835392      -1.19129082      -0.40073831
S       -1.21418000       4.85919000       8.35101000       0.10838485       1.94229154      -1.57737693
S       -3.35464000       7.26162000       7.04030000      -1.07161677      -0.85889912      -1.25649914
S        1.77612000       3.12294000       7.70763000      -0.93737690      -0.65645612       0.01414312
S       -0.05791000       7.78647000       5.54874000       0.43852993       0.38445037      -0.83366374
S       -0.90427700       2.24664000       9.81294000      -0.20219412      -1.79438781       1.56464328
S       10.38660000       0.41614500       4.42014000      -0.68831825      -1.26245485       1.37607087
S       10.24100000       1.24287000       0.92901400       1.51387068       0.50396862       1.96769250
Li       9.59877000       3.49888000       1.54737000      -0.15958066      -0.34428357       0.13260413
Li       6.00645000       0.11340000       2.30076000       0.37852655       0.14616773      -0.35323924
S        7.43710000       2.48431000       3.21616000      -0.31647503       0.35999198      -0.10420681
Li       8.60043000       0.32378100       0.19023300      -1.74212911      -0.81885985      -0.63060984
P        6.97527000       4.48683000       2.99953000       1.50109333       0.31954236      -0.61958907
Li       8.78007000       2.30909000       5.20141000      -0.18096812      -0.22777814       0.32916857
S        8.05891000       2.16325000       8.07080000      -0.27952571       0.90868134       0.69994890
Li       7.47771000      -1.01060000       8.28973000       0.74324113       0.38622392      -0.36818506
Li       5.64405000      -0.17764800       9.87548000      -0.57089443      -0.03199018       0.33509445
P        8.47837000      -2.26940000      10.64870000       0.28608973      -0.44558400       1.43824477
P        5.49759000       0.35698300       5.92553000      -0.74387517       1.32440301       1.59043248
S        7.38794000      -0.13055100       6.07765000       1.51266175      -0.27578012      -1.07699758
S        4.58291000      -2.05078000      10.93470000      -0.54567037      -0.09629398      -0.19737125
S        5.01242000       2.42368000       6.28859000       0.36569932      -1.01999365       0.24799267
S        7.95043000      -3.26375000       8.99796000      -0.46601810      -0.20146599      -1.30686860
S        4.63523000      -0.82447900       7.33995000      -1.09847040       0.06116552       1.02712486
S        7.85902000      -0.34815400      10.78660000       0.25713243       0.86726601      -1.31397153
Li       5.50974000      -2.74061000       8.35481000      -0.38245725      -0.88706144       0.27046360
S        8.23046000       5.39488000       1.63979000      -0.88594867      -0.16949535      -0.17860734
Li       7.91490000       7.97215000       0.64584200      -0.39015102      -0.66368503       0.10656246
S        8.79028000      10.03420000       0.22044500       0.47311641      -0.69271587       1.32037100
Li       4.00813000       9.96465000       4.28237000       0.63222038       0.38701582       0.30424944
S        8.61252000       8.16782000       3.58659000       0.24127952      -0.74758475       1.27489076
P        4.55074000       9.42788000       0.47871400       0.54863948       1.69645552       0.25157730
Li       7.79668000      10.13590000       2.76665000      -0.50359323       0.30816574      -0.03114274
S        5.29583000      10.57480000       2.22856000      -0.21651311      -0.33333530      -0.73122174
S        7.78576000       5.10531000       4.85030000       0.99162461      -1.02136764       1.47610735
S        5.30883000       7.59568000       0.61726900      -0.19585224      -1.34842277       1.15373935
P        7.77699000       7.16288000       5.24002000      -0.83469784       1.95375301      -0.02220713
S        5.09196000       5.10040000       3.04049000      -1.06129636      -0.59682658      -0.47659665
Li       4.73082000       5.64432000       5.34387000       0.09960711      -0.07040040       0.37534558
Li       7.27409000       6.63461000       9.24512000       0.02870740       0.18460109       0.04468114
S        3.02130000       5.79180000      10.14610000      -1.37103150      -0.21816993       0.41855400
Li       2.97701000       3.16858000       9.74613000       0.49439177       0.40421033      -0.49117686
S        5.93565000       4.98425000       7.96975000       0.00906571      -0.58900580       0.48828283
S        2.84320000       6.70856000       6.74656000       0.90588552       0.36870339       1.00155112
P        6.28375000       3.04359000       8.43411000      -0.38941877      -0.16908089      -1.42862884
S        5.81935000       7.70496000       5.55265000       1.28112774       0.12026489       0.15613487
S        5.16739000       2.08280000       9.90264000       0.24200611       0.82491839      -0.59105034
84
Lattice="12.375 0.0 0.0 -2.5754428754180116 11.867764321701818 0.0 -2.730270011857891 -4.41833150365321 11.2807594330424" Properties=species:S:1:pos:R:3:forces:R:3 energy=-20140.283315621164 pbc="T T T"
Li       2.64661000      -1.22290000       4.32960000       0.55072413      -0.49387241       1.47975986
Li       1.68312000       0.71214300       1.49517000       0.34232490       0.02678987      -0.40885528
Li      -0.63270000       0.71448600       2.91870000       1.27455703       0.63494472      -1.33881969
P        0.80350700       4.44738000       2.80075000      -0.09357324      -0.89634107       0.92043899
S        4.50064000       1.46910000       1.07824000      -1.30378327      -0.67405532       0.27028259
S        1.40483000       2.48248000       3.30565000       0.15483800      -0.58751353      -0.93202695
S        4.65589000      -0.18029900       4.18513000      -0.35169914       0.23592443      -1.36406947
Li       4.47999000       2.51741000       3.10481000      -0.00190519       0.53463930       0.58763951
Li       0.85474100       3.11134000       5.43234000      -0.37841342      -0.81309646       0.60586709
S       -1.19413000       4.53661000       3.18146000       0.23100179      -0.76667057       0.42925493
Li       2.40352000       0.58911600       8.32041000       0.27511472      -0.11961132      -0.78556046
S       -2.03362000      -1.14550000       7.54083000      -1.45162839      -0.71472091       0.29483200
S        1.86321000      -0.12780700      10.38800000      -0.72806494       0.53648947       0.62984006
Li      -1.44434000      -0.30436500       9.57869000       0.23398736       0.17213844       0.62909392
P        2.44307000      -2.03231000      10.71270000       2.69395047       0.76088558      -1.30938365
P       -1.04304000      -0.02944100       6.29985000      -0.92265991       0.63515658      -0.99628653
S        2.23755000      -3.02865000       8.96380000      -0.35967728      -1.16031006      -0.06978283
S       -1.91320000      -2.40109000      10.97040000       0.49528909       0.40511895      -0.49085496
S       -1.22897000       2.06896000       6.50770000       0.12717448       1.90723044      -0.20363291
Li       0.56616500      -2.81213000       7.26978000      -0.04444563       0.47780198       0.10279373
S        0.81726100      -0.55447400       6.55720000       2.38341366      -0.05282126      -0.82541256
Li       1.38673000       7.77755000       1.91194000      -0.17009904       0.28712949      -0.26954983
S       -1.03670000       7.68646000       1.05915000       0.03649784      -1.29862461       0.06176818
S        1.45233000       5.41457000       1.19038000      -0.30159863      -0.15109293      -0.05204478
P        1.85509000       7.19284000       5.09097000      -1.69384790      -1.23118715       0.69470179