84
Lattice="12.375 0.0 0.0 -2.5754428754180116 11.867764321701818 0.0 -2.730270011857891 -4.41833150365321 11.2807594330424" Properties=species:S:1:pos:R:3:forces:R:3 energy=-20127.113411210685 pbc="T T T"
Li       4.13624000       5.30503000       1.07776000       0.00080373      -0.39636023      -0.13332404
Li       2.25060000       2.72815000       1.15973000       0.46943561      -0.59023427       0.40389974
Li      -0.24120500       3.32199000       1.41784000      -0.91047134      -0.27379575      -0.38024199
P        0.93316500       4.40146000       3.14186000       0.28912775      -0.60765452       1.05937575
S        1.73398000       5.15730000       1.35920000      -0.26417468       0.35946593       0.40152918
S        1.37167000       2.42106000       3.30469000      -0.31420423      -0.05051498      -0.44488004
S        4.02935000       0.30867300       4.53633000       0.18520016      -0.21158636      -0.00689981
S        4.25055000       1.68885000       1.09457000       0.45906378       0.27552456      -0.00768040
Li      -0.03404000      -1.62134000       9.22853000       0.03257845      -1.38014452      -0.92829525
Li       1.22641000       1.91519000       5.65058000       0.73474569      -0.85358928      -0.57724865
Li       0.55234000       0.54969200       8.16626000       0.85413281      -0.15946187      -0.14570647
Li      -0.76799000      -0.07517300      10.42070000      -0.83901524       0.77252600       0.36355142
P        2.32486000      -2.22150000      10.61580000      -0.20137703      -0.99907824       0.11388599
P       -1.05103000       0.15771100       6.08398000      -0.37690315      -0.02112213      -0.95380625
S        0.89125600      -0.37364600       5.80708000      -0.17046722       0.03690202       0.41359845
S       -1.75357000      -2.49272000      10.65280000       0.47797219      -0.23347057       0.49857238
S       -1.13274000       2.36308000       6.48867000       0.26924541      -0.18536882       0.04063629
S        1.53562000      -3.20338000       9.03037000       0.44927251       0.35817421       0.13539995
S       -1.80287000      -0.75426400       7.73707000       0.35040485      -0.03769649       0.26460817
S        1.87057000      -0.10307200      10.26040000      -0.73389054       0.65241743      -0.20344779
S        1.88687000       2.67670000       7.86689000      -0.32558034       0.01599638      -0.65513457
Li       3.20645000       6.12460000       3.01881000       0.20656037       0.77081776       0.20794671
Li      -2.17054000       9.11368000       5.54567000       0.28678805       0.57967526      -0.07659779
Li      -1.85661000       6.59538000       4.58011000       0.78244994      -0.02649985      -0.43353530
P        1.87489000       7.23308000       5.16571000       0.40326673      -0.06105599      -0.07551741
P       -1.38751000       9.60356000       0.67478900       0.27307430      -0.73388797       0.61764326
S        2.67963000       8.23910000       3.62339000      -0.28236369      -0.02935891      -0.02369940
S       -1.05366000       4.73585000       3.34156000      -0.15978789       0.05264282      -0.33053742
S        2.05555000       5.08557000       4.79631000       0.37949277       0.08858273       0.06328308
S       -0.00985500       7.83562000       5.54861000      -0.00407623      -0.32467839       0.32218905
S       -0.68076200      10.65200000       2.23580000       0.00800487       0.13454943      -0.08469677
S        2.69072000       9.94424000       0.66650100      -0.04646909       0.01241843       0.39492710
S       -1.03753000       7.64199000       0.97601800      -0.04796907      -0.37749656       0.01285089
Li      -1.27120000       4.66178000      10.20230000      -0.31108034       0.32367566       0.67488630
Li       2.09877000       9.41284000       5.87534000       0.10856329       0.98792119       0.44799210
Li       0.64154800       4.02788000       6.24609000       0.06041321       1.25800838      -0.42608270
Li      -3.05172000       4.85341000       7.88814000      -0.39100051      -0.16611589       0.44741309
P       -0.09042900       3.09198000       8.27031000      -0.72638704       0.25962897       0.60447509
S       -0.89733700       2.26776000       9.90526000       0.11181882       0.13209557      -0.03192436
S       -3.11118000       7.16627000       6.80106000      -0.28840990       0.21544508      -0.02034411
S       -0.53682700       5.05090000       7.95378000       0.24706399      -0.01244620       0.08574732
S       -3.34947000       5.80283000      10.15550000       0.08031149       0.56689739      -0.62718411
Li       9.78836000       3.04168000       4.52586000       0.15340024      -0.48423900      -0.13914656
Li       8.96620000       3.76659000       0.07594100       0.45655439       1.87866908      -0.47260681
Li       6.35829000       5.68523000       0.00849400       0.53002932      -0.96655430       0.40583989
Li       8.18774000       2.56828000       1.33494000      -0.82796669      -1.49259892       0.36219079
Li       6.10703000       1.38278000       4.60260000       0.30433274       0.45833256      -1.03155384
P        7.11876000       4.37791000       3.08368000      -0.40026163      -0.34887659       0.28635764
S        7.99310000       5.17537000       1.40314000       0.38126529       0.23960830       0.70150236
S        7.64292000       2.40772000       3.37886000       0.33412720       0.43461568       0.30885480
S       10.16890000       0.33723000       4.48757000       0.17617507      -0.10443153       0.11188207
S       10.38190000       1.70551000       1.06521000       0.20166962       0.01608996      -0.32143572
Li       6.46762000      -2.18557000      10.24750000      -1.55135531      -1.16516893      -1.83738796
Li       8.28876000       0.20614000       7.84349000      -0.17496408      -0.07280387      -0.05066924
P        8.60351000      -2.23725000      10.54650000       0.88877894       0.19930318      -1.08267509
P        5.16853000       0.14339200       6.19624000      -1.04383497      -0.38435318       1.04104738
S        7.06874000      -0.42187300       5.78112000      -0.05439683       0.15518407      -0.01500084
S        4.34830000      -2.49310000      10.65390000       0.13727428       0.00861474       0.35568178
S        5.04732000       2.38363000       6.50597000      -0.36770889      -0.35042799       0.14871826
S        7.81725000      -3.25461000       8.95219000       0.69403176      -0.11449997       0.08719382
S        4.36600000      -0.79183200       7.73588000      -0.01473294      -0.14698688       0.23889199
S        8.12509000      -0.20189100      10.28290000       0.36276466      -0.21684787       0.15909524
S        8.09673000       2.66766000       7.93179000       0.45058686      -0.25668197       0.06995457
Li       7.89395000       7.61472000       1.30177000       1.33236417      -0.20846813      -0.20140171
Li       6.29384000       8.41689000       3.17248000      -0.70899507       0.56807290       0.38974170
Li       6.72478000       9.53673000       0.78636200       1.88933196       0.97458437       0.15531828
Li       5.87686000       5.39906000       5.55727000      -0.66895322      -0.11802546       0.44060378
P        8.03785000       7.24703000       5.15440000      -0.02032817       0.44015641      -0.21332083
P        4.63514000       9.69760000       0.66110500      -2.55748300       1.61665259      -0.61043851
S        8.90466000       8.20198000       3.58308000      -0.23464504      -0.05340336       0.18196931
S        5.14921000       4.73547000       3.35090000      -0.07969648      -0.24694212      -0.03405220
S        8.19065000       5.07060000       4.81603000      -0.07330112       0.04348815       0.40412857
S        6.15549000       7.82987000       5.53071000       0.02767381      -0.28906399       0.09818426
S        5.51534000      10.63690000       2.27924000      -0.11105726      -0.65620775       0.04634208
S        8.93404000       9.95670000       0.64559700      -1.02825100       0.07398658      -0.12811241
S        5.20047000       7.57958000       1.02533000       0.83627290      -1.23876881       0.30180792
Li       4.96191000       4.65858000      10.06780000       0.32449327       0.49708063      -0.26410937
Li       6.97661000       7.26194000       7.91181000       0.06788946      -0.01430408       0.60924655
Li       2.75159000       2.29171000       9.90865000      -0.36236202       1.16775957      -0.93027655
P        6.15052000       3.03771000       8.17491000       0.17984918       0.54890790      -0.82938029
S        5.33180000       2.29901000       9.91789000      -0.16204686      -0.23837314       0.18143607
S        3.04133000       7.14748000       6.78516000      -0.41051056       0.01725724       0.03580981
S        5.68087000       5.02913000       7.95039000       0.08640758       0.19874473      -0.17357106
S        2.83235000       5.75253000      10.17930000      -0.08858787      -0.49082565       0.20571499
84
Lattice="12.375 0.0 0.0 -2.5754428754180116 11.867764321701818 0.0 -2.730270011857891 -4.41833150365321 11.2807594330424" Properties=species:S:1:pos:R:3:forces:R:3 energy=-20127.113411411374 pbc="T T T"
Li       4.13624000       5.30503000       1.07776000       0.00079601      -0.39637103      -0.13331993
Li       2.25060000       2.72815000       1.15973000       0.46941350      -0.59022913       0.40387711
Li      -0.24120500       3.32199000       1.41784000      -0.91047545      -0.27379318      -0.38025330
P        0.93316500       4.40146000       3.14186000       0.28913083      -0.60764835       1.05937472
S        1.73398000       5.15730000       1.35920000      -0.26417416       0.35946593       0.40152815
S        1.37167000       2.42106000       3.30469000      -0.31420166      -0.05051601      -0.44488004
S        4.02935000       0.30867300       4.53633000       0.18520119      -0.21158585      -0.00689570
S        4.25055000       1.68885000       1.09457000       0.45906738       0.27552456      -0.00768246
Li      -0.03404000      -1.62134000       9.22853000       0.03258513      -1.38015429      -0.92828085
Li       1.22641000       1.91519000       5.65058000       0.73475855      -0.85359596      -0.57726562
Li       0.55234000       0.54969200       8.16626000       0.85411533      -0.15947473      -0.14573116
Li      -0.76799000      -0.07517300      10.42070000      -0.83899570       0.77253422       0.36356530
P        2.32486000      -2.22150000      10.61580000      -0.20137343      -0.99908081       0.11389010
P       -1.05103000       0.15771100       6.08398000      -0.37690573      -0.02112058      -0.95380728
S        0.89125600      -0.37364600       5.80708000      -0.17046774       0.03690099       0.41359742
S       -1.75357000      -2.49272000      10.65280000       0.47797271      -0.23347314       0.49857238
S       -1.13274000       2.36308000       6.48867000       0.26924747      -0.18537140       0.04063371
S        1.53562000      -3.20338000       9.03037000       0.44926942       0.35817524       0.13540046
S       -1.80287000      -0.75426400       7.73707000       0.35040588      -0.03769751       0.26460817
S        1.87057000      -0.10307200      10.26040000      -0.73388797       0.65241537      -0.20345139
S        1.88687000       2.67670000       7.86689000      -0.32558445       0.01599483      -0.65513148
Li       3.20645000       6.12460000       3.01881000       0.20654649       0.77081673       0.20795957
Li      -2.17054000       9.11368000       5.54567000       0.28676851       0.57966086      -0.07662093
Li      -1.85661000       6.59538000       4.58011000       0.78247000      -0.02648339      -0.43350805
P        1.87489000       7.23308000       5.16571000       0.40326776      -0.06105547      -0.07552153
P       -1.38751000       9.60356000       0.67478900       0.27308149      -0.73388900       0.61764943
S        2.67963000       8.23910000       3.62339000      -0.28236215      -0.02935994      -0.02369786
S       -1.05366000       4.73585000       3.34156000      -0.15978995       0.05263922      -0.33053485
S        2.05555000       5.08557000       4.79631000       0.37949226       0.08858325       0.06328308
S       -0.00985500       7.83562000       5.54861000      -0.00407931      -0.32468045       0.32218545
S       -0.68076200      10.65200000       2.23580000       0.00800539       0.13455251      -0.08469728
S        2.69072000       9.94424000       0.66650100      -0.04646600       0.01241740       0.39493070
S       -1.03753000       7.64199000       0.97601800      -0.04797164      -0.37749862       0.01285192
Li      -1.27120000       4.66178000      10.20230000      -0.31106286       0.32368389       0.67488373
Li       2.09877000       9.41284000       5.87534000       0.10858180       0.98791502       0.44799261
Li       0.64154800       4.02788000       6.24609000       0.06039933       1.25801455      -0.42607139
Li      -3.05172000       4.85341000       7.88814000      -0.39101748      -0.16611435       0.44740743
P       -0.09042900       3.09198000       8.27031000      -0.72638704       0.25963103       0.60447921
S       -0.89733700       2.26776000       9.90526000       0.11181985       0.13209454      -0.03192796
S       -3.11118000       7.16627000       6.80106000      -0.28840835       0.21544405      -0.02034257
S       -0.53682700       5.05090000       7.95378000       0.24706296      -0.01244722       0.08574372
S       -3.34947000       5.80283000      10.15550000       0.08031046       0.56689585      -0.62718925
Li       9.78836000       3.04168000       4.52586000       0.15338173      -0.48423437      -0.13913576
Li       8.96620000       3.76659000       0.07594100       0.45653588       1.87866086      -0.47262327
Li       6.35829000       5.68523000       0.00849400       0.53003446      -0.96655173       0.40582961
Li       8.18774000       2.56828000       1.33494000      -0.82798572      -1.49261434       0.36218205
Li       6.10703000       1.38278000       4.60260000       0.30431937       0.45833308      -1.03157081
P        7.11876000       4.37791000       3.08368000      -0.40026163      -0.34887710       0.28635353
S        7.99310000       5.17537000       1.40314000       0.38125603       0.23959802       0.70150853
S        7.64292000       2.40772000       3.37886000       0.33412720       0.43462185       0.30885582
S       10.16890000       0.33723000       4.48757000       0.17617559      -0.10443050       0.11188413
S       10.38190000       1.70551000       1.06521000       0.20167116       0.01608996      -0.32143572
Li       6.46762000      -2.18557000      10.24750000      -1.55136662      -1.16518487      -1.83741419
Li       8.28876000       0.20614000       7.84349000      -0.17498414      -0.07279873      -0.05068673
P        8.60351000      -2.23725000      10.54650000       0.88877843       0.19930163      -1.08267560
P        5.16853000       0.14339200       6.19624000      -1.04383292      -0.38435215       1.04104738
S        7.06874000      -0.42187300       5.78112000      -0.05440197       0.15518664      -0.01499827
S        4.34830000      -2.49310000      10.65390000       0.13726811       0.00861371       0.35568281
S        5.04732000       2.38363000       6.50597000      -0.36770838      -0.35043159       0.14872083
S        7.81725000      -3.25461000       8.95219000       0.69403176      -0.11450048       0.08719279
S        4.36600000      -0.79183200       7.73588000      -0.01473294      -0.14698380       0.23888788
S        8.12509000      -0.20189100      10.28290000       0.36276723      -0.21684530       0.15909832
S        8.09673000       2.66766000       7.93179000       0.45058789      -0.25668351       0.06995612
Li       7.89395000       7.61472000       1.30177000       1.33235594      -0.20845785      -0.20139297
Li       6.29384000       8.41689000       3.17248000      -0.70897913       0.56808884       0.38977050
Li       6.72478000       9.53673000       0.78636200       1.88933710       0.97457202       0.15530903
Li       5.87686000       5.39906000       5.55727000      -0.66893265      -0.11801364       0.44060583
P        8.03785000       7.24703000       5.15440000      -0.02032817       0.44015486      -0.21332083
P        4.63514000       9.69760000       0.66110500      -2.55748608       1.61665722      -0.61043800
S        8.90466000       8.20198000       3.58308000      -0.23464504      -0.05340181       0.18196674
S        5.14921000       4.73547000       3.35090000      -0.07968774      -0.24694057      -0.03405580
S        8.19065000       5.07060000       4.81603000      -0.07330061       0.04349124       0.40412908
S        6.15549000       7.82987000       5.53071000       0.02767741      -0.28906553       0.09818580
S        5.51534000      10.63690000       2.27924000      -0.11105674      -0.65620980       0.04634105
S        8.93404000       9.95670000       0.64559700      -1.02825769       0.07398658      -0.12811293
S        5.20047000       7.57958000       1.02533000       0.83626981      -1.23877036       0.30180843
Li       4.96191000       4.65858000      10.06780000       0.32451281       0.49709297      -0.26408469
Li       6.97661000       7.26194000       7.91181000       0.06788329      -0.01430253       0.60924501
Li       2.75159000       2.29171000       9.90865000      -0.36238156       1.16774672      -0.93027192
P        6.15052000       3.03771000       8.17491000       0.17985072       0.54890533      -0.82938389
S        5.33180000       2.29901000       9.91789000      -0.16204635      -0.23837520       0.18143812
S        3.04133000       7.14748000       6.78516000      -0.41050902       0.01725570       0.03580930
S        5.68087000       5.02913000       7.95039000       0.08640758       0.19874627      -0.17357466
S        2.83235000       5.75253000      10.17930000      -0.08859147      -0.49083028       0.20571551
84
Lattice="12.375 0.0 0.0 -2.5754428754180116 11.867764321701818 0.0 -2.730270011857891 -4.41833150365321 11.2807594330424" Properties=species:S:1:pos:R:3:forces:R:3 energy=-20127.113411406364 pbc="T T T"
Li       4.13624000       5.30503000       1.07776000       0.00079550      -0.39637103      -0.13332044
Li       2.25060000       2.72815000       1.15973000       0.46941350      -0.59022913       0.40387660
Li      -0.24120500       3.32199000       1.41784000      -0.91047597      -0.27379369      -0.38025433
P        0.93316500       4.40146000       3.14186000       0.28913238      -0.60764886       1.05937421
S        1.73398000       5.15730000       1.35920000      -0.26417365       0.35946490       0.40152867
S        1.37167000       2.42106000       3.30469000      -0.31420166      -0.05051189      -0.44487901
S        4.02935000       0.30867300       4.53633000       0.18520016      -0.21158533      -0.00689776
S        4.25055000       1.68885000       1.09457000       0.45906841       0.27552404      -0.00768091
Li      -0.03404000      -1.62134000       9.22853000       0.03258513      -1.38015429      -0.92828085
Li       1.22641000       1.91519000       5.65058000       0.73475906      -0.85359699      -0.57726511
Li       0.55234000       0.54969200       8.16626000       0.85411533      -0.15947524      -0.14573064
Li      -0.76799000      -0.07517300      10.42070000      -0.83899570       0.77253371       0.36356479
P        2.32486000      -2.22150000      10.61580000      -0.20137497      -0.99907978       0.11389061
P       -1.05103000       0.15771100       6.08398000      -0.37690418      -0.02112007      -0.95380677
S        0.89125600      -0.37364600       5.80708000      -0.17046825       0.03690099       0.41359742
S       -1.75357000      -2.49272000      10.65280000       0.47797116      -0.23347262       0.49857238
S       -1.13274000       2.36308000       6.48867000       0.26924849      -0.18537088       0.04063371
S        1.53562000      -3.20338000       9.03037000       0.44926891       0.35817421       0.13539892
S       -1.80287000      -0.75426400       7.73707000       0.35040485      -0.03769803       0.26460868
S        1.87057000      -0.10307200      10.26040000      -0.73388746       0.65241486      -0.20345191
S        1.88687000       2.67670000       7.86689000      -0.32558445       0.01599432      -0.65513148
Li       3.20645000       6.12460000       3.01881000       0.20654597       0.77081776       0.20795905
Li      -2.17054000       9.11368000       5.54567000       0.28676851       0.57966086      -0.07662093
Li      -1.85661000       6.59538000       4.58011000       0.78247102      -0.02648236      -0.43350805
P        1.87489000       7.23308000       5.16571000       0.40326725      -0.06105496      -0.07552153
P       -1.38751000       9.60356000       0.67478900       0.27308818      -0.73389157       0.61765971
S        2.67963000       8.23910000       3.62339000      -0.28236163      -0.02935994      -0.02369837
S       -1.05366000       4.73585000       3.34156000      -0.15979098       0.05263819      -0.33053434
S        2.05555000       5.08557000       4.79631000       0.37949123       0.08858222       0.06328256
S       -0.00985500       7.83562000       5.54861000      -0.00407931      -0.32468045       0.32218597
S       -0.68076200      10.65200000       2.23580000       0.00800693       0.13455251      -0.08470191
S        2.69072000       9.94424000       0.66650100      -0.04646858       0.01241689       0.39493276
S       -1.03753000       7.64199000       0.97601800      -0.04797473      -0.37749605       0.01285089
Li      -1.27120000       4.66178000      10.20230000      -0.31106337       0.32368389       0.67488373
Li       2.09877000       9.41284000       5.87534000       0.10858180       0.98791502       0.44799261
Li       0.64154800       4.02788000       6.24609000       0.06039881       1.25801558      -0.42607087
Li      -3.05172000       4.85341000       7.88814000      -0.39101800      -0.16611383       0.44740846
P       -0.09042900       3.09198000       8.27031000      -0.72638909       0.25962948       0.60448024
S       -0.89733700       2.26776000       9.90526000       0.11182139       0.13209454      -0.03192950
S       -3.11118000       7.16627000       6.80106000      -0.28840887       0.21544250      -0.02034205
S       -0.53682700       5.05090000       7.95378000       0.24706296      -0.01244620       0.08574269
S       -3.34947000       5.80283000      10.15550000       0.08030995       0.56689534      -0.62719233
Li       9.78836000       3.04168000       4.52586000       0.15338224      -0.48423437      -0.13913576
Li       8.96620000       3.76659000       0.07594100       0.45653639       1.87865880      -0.47262378
Li       6.35829000       5.68523000       0.00849400       0.53003703      -0.96655018       0.40582909
Li       8.18774000       2.56828000       1.33494000      -0.82798623      -1.49261434       0.36218205
Li       6.10703000       1.38278000       4.60260000       0.30431783       0.45833256      -1.03157030
P        7.11876000       4.37791000       3.08368000      -0.40025854      -0.34887247       0.28635199
S        7.99310000       5.17537000       1.40314000       0.38125089       0.23959390       0.70151110
S        7.64292000       2.40772000       3.37886000       0.33412668       0.43462185       0.30885428
S       10.16890000       0.33723000       4.48757000       0.17617610      -0.10442998       0.11188361
S       10.38190000       1.70551000       1.06521000       0.20167116       0.01609048      -0.32143572
Li       6.46762000      -2.18557000      10.24750000      -1.55136714      -1.16518436      -1.83741368
Li       8.28876000       0.20614000       7.84349000      -0.17498414      -0.07279924      -0.05068621
P        8.60351000      -2.23725000      10.54650000       0.88878100       0.19930215      -1.08267406
P        5.16853000       0.14339200       6.19624000      -1.04383446      -0.38435010       1.04104738
S        7.06874000      -0.42187300       5.78112000      -0.05439837       0.15518562      -0.01499879
S        4.34830000      -2.49310000      10.65390000       0.13726914       0.00861371       0.35568230
S        5.04732000       2.38363000       6.50597000      -0.36770786      -0.35043159       0.14872032
S        7.81725000      -3.25461000       8.95219000       0.69403125      -0.11450151       0.08719125
S        4.36600000      -0.79183200       7.73588000      -0.01473396      -0.14698483       0.23888994
S        8.12509000      -0.20189100      10.28290000       0.36276620      -0.21684530       0.15909884
S        8.09673000       2.66766000       7.93179000       0.45059046      -0.25668351       0.06995509
Li       7.89395000       7.61472000       1.30177000       1.33235646      -0.20845527      -0.20139297
Li       6.29384000       8.41689000       3.17248000      -0.70897810       0.56808987       0.38976998
Li       6.72478000       9.53673000       0.78636200       1.88933865       0.97457151       0.15530800
Li       5.87686000       5.39906000       5.55727000      -0.66893316      -0.11801312       0.44060738
P        8.03785000       7.24703000       5.15440000      -0.02032560       0.44015486      -0.21332083
P        4.63514000       9.69760000       0.66110500      -2.55748454       1.61665670      -0.61044108
S        8.90466000       8.20198000       3.58308000      -0.23464710      -0.05340233       0.18196417
S        5.14921000       4.73547000       3.35090000      -0.07968774      -0.24694160      -0.03405632
S        8.19065000       5.07060000       4.81603000      -0.07330061       0.04349227       0.40412959
S        6.15549000       7.82987000       5.53071000       0.02767741      -0.28906656       0.09818632
S        5.51534000      10.63690000       2.27924000      -0.11105623      -0.65620878       0.04634362
S        8.93404000       9.95670000       0.64559700      -1.02826334       0.07398555      -0.12811241
S        5.20047000       7.57958000       1.02533000       0.83626879      -1.23876984       0.30180946
Li       4.96191000       4.65858000      10.06780000       0.32451333       0.49709349      -0.26408212
Li       6.97661000       7.26194000       7.91181000       0.06788381      -0.01430305       0.60924552
Li       2.75159000       2.29171000       9.90865000      -0.36238156       1.16774672      -0.93027243
P        6.15052000       3.03771000       8.17491000       0.17984918       0.54890687      -0.82938337
S        5.33180000       2.29901000       9.91789000      -0.16204686      -0.23837726       0.18144121
S        3.04133000       7.14748000       6.78516000      -0.41050902       0.01725519       0.03580878
S        5.68087000       5.02913000       7.95039000       0.08640706       0.19874679      -0.17357672
S        2.83235000       5.75253000      10.17930000      -0.08859250      -0.49083131       0.20571448
84
Lattice="12.375 0.0 0.0 -2.5754428754180116 11.867764321701818 0.0 -2.730270011857891 -4.41833150365321 11.2807594330424" Properties=species:S:1:pos:R:3:forces:R:3 energy=-20127.11341142398 pbc="T T T"
Li       4.13624000       5.30503000       1.07776000       0.00079550      -0.39637052      -0.13332044
Li       2.25060000       2.72815000       1.15973000       0.46941350      -0.59022913       0.40387711
Li      -0.24120500       3.32199000       1.41784000      -0.91047545      -0.27379318      -0.38025382
P        0.93316500       4.40146000       3.14186000       0.28913341      -0.60764681       1.05937318
S        1.73398000       5.15730000       1.35920000      -0.26417262       0.35946439       0.40152712
S        1.37167000       2.42106000       3.30469000      -0.31420115      -0.05051292      -0.44487849
S        4.02935000       0.30867300       4.53633000       0.18520119      -0.21158585      -0.00689724
S        4.25055000       1.68885000       1.09457000       0.45906944       0.27552404      -0.00768143
Li      -0.03404000      -1.62134000       9.22853000       0.03258462      -1.38015429      -0.92828085
Li       1.22641000       1.91519000       5.65058000       0.73475855      -0.85359648      -0.57726511
Li       0.55234000       0.54969200       8.16626000       0.85411584      -0.15947524      -0.14573064
Li      -0.76799000      -0.07517300      10.42070000      -0.83899621       0.77253422       0.36356530
P        2.32486000      -2.22150000      10.61580000      -0.20137394      -0.99907978       0.11389267
P       -1.05103000       0.15771100       6.08398000      -0.37690470      -0.02111956      -0.95380677
S        0.89125600      -0.37364600       5.80708000      -0.17046825       0.03690099       0.41359742
S       -1.75357000      -2.49272000      10.65280000       0.47797116      -0.23347211       0.49857187
S       -1.13274000       2.36308000       6.48867000       0.26924798      -0.18537037       0.04063371
S        1.53562000      -3.20338000       9.03037000       0.44926840       0.35817421       0.13539841
S       -1.80287000      -0.75426400       7.73707000       0.35040485      -0.03769803       0.26460920
S        1.87057000      -0.10307200      10.26040000      -0.73388746       0.65241434      -0.20345242
S        1.88687000       2.67670000       7.86689000      -0.32558445       0.01599380      -0.65513200
Li       3.20645000       6.12460000       3.01881000       0.20654597       0.77081776       0.20795905
Li      -2.17054000       9.11368000       5.54567000       0.28676902       0.57966138      -0.07662145
Li      -1.85661000       6.59538000       4.58011000       0.78247051      -0.02648236      -0.43350856
P        1.87489000       7.23308000       5.16571000       0.40326776      -0.06105342      -0.07552204