84
Lattice="12.37549515 0.0 0.0 -2.57550726 11.86797731 0.0 -2.73043011 -4.41844128 11.28104536" Properties=species:S:1:pos:R:3:forces:R:3:delta_forces:R:3 delta_energy=-595941.248060317 stress="-0.01237309 0.00181417 -0.00122198 0.00181417 -0.00993901 -0.00283955 -0.00122198 -0.00283955 -0.0146075" virials="-20.50061119313812 3.005845250317858 -2.02466294723395 3.005845250317858 -16.467655181907812 -4.704767403573024 -2.02466294723395 -4.704767403573024 -24.202739817116427" energy=-596316.092410317 pbc="T T T"
Li       4.12662000       4.78403000       1.21530000      -0.10199935       0.04073118       0.21752665       0.16352265      -0.08709682       0.36524465
Li       2.41983000       2.90566000       1.18373000      -0.23536248      -0.32256115      -0.03361851      -0.19786118       0.44309385       0.11708749
Li      -1.12403000       3.50041000       1.21070000      -0.10185614       0.08501042       0.96925466       0.27906586       0.01962912       0.78819566
P        1.01850000       4.23832000       3.23682000       0.00079881       0.77542215      -0.64544494       0.37574281       2.50189215       0.43990506
Li       2.63098000       1.78183000       5.20673000      -1.23052256       0.43724555       0.27448844      -1.06506356       0.81538355       0.71993044
S        1.11015000       2.24995000       3.14359000       0.57633390       0.19019856       0.31202399       0.59096550      -2.81821144      -0.05873701
S        4.00264000       0.18789100       4.52654000      -0.13191141       0.08550209      -0.31425448      -1.46780141      -0.53676191      -2.89920448
S        4.22291000       1.38317000       1.08634000      -0.03451959       0.22840244       0.06196712      -1.03684959      -1.72956756       1.50280712
Li       4.73782000      -1.80926000       5.51304000      -0.15049835      -0.22803258      -0.42930828      -0.11880885      -0.18128268       0.15222672
Li      -0.71155700      -3.18045000       8.31088000       0.30261963       1.81620662       1.07150189      -0.08417537       2.11220962       1.02018399
S        1.87579000       2.59303000       7.80147000      -0.12273674       0.27607222       0.23612157       1.33182326       0.01023322      -0.05400743
Li       2.28796000      -0.32221200       8.01888000      -2.99204747       0.53578522       0.46912296      -2.87288147       0.86121022       0.58883896
Li      -1.55668000      -0.02370080       9.95555000       0.18203631      -0.15212712      -0.16250523       0.28019881      -0.42347012      -0.20143613
P        2.22736000      -2.28549000      10.64660000       1.21819533      -0.42028313      -0.75015500       1.63580233       2.09733687       0.27212500
P       -1.04083000       0.20209700       6.05556000       0.20484191       0.34510421      -0.34571215       0.80963191       1.51419421       1.79418785
S        0.93313200      -0.38581400       5.92581000      -0.22170283       0.12681792      -0.07172054       1.24680717      -0.74499808      -0.94167554
S       -1.74787000      -2.56290000      10.87560000       0.51224939       0.00691946      -0.28147202       2.07349939      -1.02898054       0.10915498
S       -1.08339000       2.43802000       6.31401000       0.40819605      -0.23514814       0.59962970      -0.60621395       0.15552486      -0.52551030
S        1.77646000      -3.13819000       8.80923000      -0.13685620       0.21124997       0.47346233      -0.50744120      -1.27333003      -1.11360767
S       -1.99507000      -0.81920100       7.55268000       0.81415552      -0.03776666      -0.35566004      -0.07194848      -1.08883666       0.37457296
S        1.62291000      -0.28081300      10.40560000      -0.15997425       0.25472729      -0.43766678      -0.93150425       1.20281029      -1.05606178
Li       3.67099000       7.00244000       2.38441000      -1.36130776      -0.41458376       0.53110485      -1.22466276      -0.44923866       0.74234585
Li      -1.27467000       9.56748000       4.32306000      -0.34110777      -0.10960787       1.18762662      -0.40752567      -0.60919787       1.21554982
Li      -1.17682000       7.20695000       3.04784000       0.09175560      -0.13743404      -0.16952797       0.25111560      -0.22650184       0.02320303
P        1.97764000       7.25677000       5.22227000      -0.78582467      -0.17799540       1.17202156      -1.18593467      -1.23025540      -1.12792844
P       -1.25697000       9.61330000       0.68844800      -0.41780780      -0.54658433      -0.12015887      -1.32258080      -2.93503433      -1.13293887
S        2.74092000       8.62749000       3.93765000       0.33611545      -1.13070406      -0.69440931       0.84944145       0.91087594      -1.83284931
S       -1.04421000       4.67671000       3.33940000       0.58621439       0.60844256       0.31936260      -1.22191561       0.55027626      -0.04339440
S        2.21958000       5.09853000       4.83008000      -0.75610090      -0.42722381       0.38561959       0.68313910      -1.24956081       1.61447959
S       -0.81939900       7.56400000       0.61549100      -0.62105363       0.74185443       0.27218501       0.15056437      -0.90449557      -0.08611799
S       -0.79775900      10.46280000       2.44373000       0.96535470       0.62556255      -0.40256368       1.66868870       2.40124255       0.82482632
S        2.48768000      10.05970000       0.87736200       0.07787416      -0.78291177      -0.71462836      -1.95759584       0.53630823      -0.02870236
S        1.87466000       5.37928000       1.66319000      -0.58108816      -0.67749346      -0.17392788      -0.50502916       0.40287654      -2.06448788
Li      -1.55530000       4.44797000      10.54160000       0.14104023       0.01728019       0.13541169       0.19175083      -0.24192081       0.04760629
S       -3.22457000       6.18064000      10.31700000       0.40735189      -0.24752348      -0.07089327       1.53837189       1.30778652      -0.77309727
Li      -0.31194900       5.28744000       5.71350000      -0.10967386      -0.01100739       0.48014780       0.40123514      -0.37911039      -0.02358420
Li      -3.29742000       4.84221000       8.31823000       0.34663066      -0.31735977      -0.11033939      -0.01774034      -0.74305077      -0.16174379
P       -0.09467640       3.13746000       8.13098000      -0.66966958      -0.40731983       0.39101251      -0.00096958      -1.24085983      -0.46573549
S       -1.07766000       2.30144000       9.74344000       0.60080609      -0.25474190      -0.25235148      -0.71527391      -1.00383690       1.41727852
S       -3.16035000       7.12867000       6.89392000      -0.06210958      -0.99546194      -0.66765440       1.57199042      -0.89726924       0.96036560
S       -0.59926000       5.11638000       8.34747000       0.55065182      -0.34902611      -1.08917000      -0.09407718       2.32846389      -0.67052000
S        0.00914532       7.69109000       5.74631000       0.36004613       0.16543337      -1.11915568      -1.60530387       1.04199137       0.50103432
Li       9.69574000       2.84317000       4.57242000       0.44637703      -0.09899622       0.09002510       0.38755703       0.35543678       0.31985510
S       10.22640000       1.43972000       0.75016000       0.02184163       0.20247310       0.14016649      -0.89967737      -0.75155990       1.61438649
S       10.35750000       0.37876700       4.29141000       0.06268715      -0.19580478       0.26680951      -0.87807685      -0.25602978      -1.76101049
Li       7.91152000       0.52420400       1.15306000      -0.50728396       1.25732881      -0.90341242      -0.77044996       0.97888481      -1.07954542
Li       6.03356000       1.15659000       3.78453000      -0.01533739      -0.28873917      -0.24599755      -0.15094839       0.21089383       0.25231845
P        7.19388000       4.37695000       3.24487000      -0.00229843       1.10065973      -0.49003632      -1.09154843       2.98938973       0.00747868
S        7.87032000       2.47466000       3.27658000      -0.42889287      -0.14371858      -0.15439260       0.79862713      -2.48980858      -0.43621860
Li       4.91102000      -2.97023000       7.68288000      -0.17827728       0.18183632       1.51576697      -0.21120548       0.55627232       0.94110297
Li       8.23296000      -0.24137000       7.93304000      -0.26447355       0.06920039      -0.18086996      -0.65569355       0.25367939      -0.01066396
P        8.66715000      -2.36963000      10.45540000      -0.43205699       0.21377458      -0.57879389      -0.46471819       1.78867458      -0.28394389
P        5.01911000       0.35601400       6.30798000       1.20606085       0.16477636      -1.44760587       1.58572885       1.57644636       0.69842413
S        6.81301000      -0.38702700       5.83057000       0.72114718      -0.16461688       0.32485009       2.89149718      -1.33046688      -0.97090991
S        4.37549000      -2.32515000      10.68130000      -0.51695165       0.61853006       0.11533538       0.93098835      -0.19579094      -0.18394262
S        5.13322000       2.42551000       6.43433000      -0.66231954       0.88897640      -0.30815290      -1.58866654       2.10195640      -1.49544290
S        8.27532000      -3.16099000       8.61624000      -0.19410502       0.07571739       0.25195473      -0.76509802      -0.91076461      -1.48403527
S        4.18964000      -0.80568300       7.68247000       1.61810431      -0.36323051       1.02325678       0.61955731      -1.79320051       2.14420678
S        8.40343000      -0.15799900      10.39820000      -0.25025475      -0.63952645      -0.49431139      -0.02195275       0.99703355      -0.48415889
S        8.13110000       2.42483000       8.06843000      -0.09724465       0.17337311      -0.03308705       2.04522535      -0.47156789       0.17834995
Li       6.11009000       0.02863460      10.14160000      -0.27700778      -0.32465209       0.20990935      -0.43501578      -0.19538709      -0.09742965
Li       3.66310000       0.65037400      11.10360000       0.26177096      -0.21118234       0.15498156       0.22114356      -0.38928134       0.38111656
Li       8.62723000       7.43217000       0.97930400       0.47039656       1.06559928      -0.09684823       0.35203456       1.22755128      -0.18238653
Li       5.54061000       8.29545000       3.23977000       0.46355610       0.57140593       0.47917255       0.57461310       0.02479993       0.14240355
Li       7.12931000      10.87850000       1.31364000       0.52259397      -0.11328984       0.15889682       0.12120597      -0.63162684      -0.07398318
S        5.20293000       7.55309000       0.96092400       0.36655814       0.43587865      -0.47669180       0.78091514      -0.56849135      -0.60579280
P        8.04400000       7.27686000       5.18061000      -0.08004922       0.00891315       0.74649510      -0.91447922      -1.61018685      -1.53233490
P        4.41522000       9.59860000       0.73762500       0.16222066       0.82209204      -0.03862614       1.40033066      -1.52446796      -0.83378814
S        8.98975000       8.35637000       3.75911000      -0.30913558      -0.31893045      -0.22984655       0.55948342       1.26726955      -1.09638855
S        5.10250000       4.67990000       3.26640000       0.90160881      -0.19396585       0.35893104      -0.69819119      -0.44179485       0.58137904
S        7.88857000       5.09909000       5.17419000       0.41454185      -0.67839591      -0.83896719       1.20942385      -1.46811091       0.75205281
S        6.10796000       7.73993000       5.57392000      -0.03879905       0.48441515      -0.53292081      -1.72520905       1.69244515       0.95750919
S        5.01354000      10.63110000       2.47389000       1.01400243      -0.63865680       0.52033497       1.08221023       0.71963320       2.43142497
S        9.12631000      10.08400000       0.52756100      -0.91240345      -0.79221085      -0.16456071      -1.79848045       0.47518915       0.26400529
S        8.27273000       5.42761000       1.79125000      -0.82372171      -1.35509143       0.14134279       0.64239829      -0.99925643      -1.09963721
Li       5.13654000       5.50974000       5.64319000       0.02090715       0.17668567       0.21191006       0.31751415      -0.04504633      -0.26996894
Li       5.11183000       4.72687000      10.19940000      -0.18941104       0.34870480       0.58930766      -0.07386304      -0.31587020       0.59041419
Li       7.40008000       6.85325000       8.64971000      -0.31486185       0.17503496       0.38036352      -0.26828045       0.00347796       0.35035882
Li       2.93068000       3.62983000       9.74687000      -0.56180473      -0.22921846      -0.28862724      -0.71689373      -0.28620666      -0.04077324
P        6.24910000       3.04431000       8.14427000       0.52519902      -0.36350983       0.45423286      -0.02365698      -1.77433983       0.10734186
S        5.06315000       2.31996000       9.71208000       0.12119112      -0.25116666       0.65700814      -0.68900688      -0.64161566       1.86731814
S        2.87320000       6.92848000       7.03161000       0.82550597      -0.68122892      -0.81186466       1.84640597      -1.07571792       1.45210534
S        5.92677000       5.03150000       8.19328000      -0.11292478       0.33742998      -1.26491441      -0.84576078       2.68315998      -1.31060211
S        2.89375000       5.95629000      10.43400000      -0.33419251      -0.51774452       0.64218291       0.44580749       1.07394548      -1.03041709
