84
Lattice="12.375 0.0 0.0 -2.5754428754180116 11.867764321701818 0.0 -2.730270011857891 -4.41833150365321 11.2807594330424" Properties=species:S:1:pos:R:3:forces:R:3 energy=-20140.283315606568 pbc="T T T"
Li       2.64661000      -1.22290000       4.32960000       0.55072310      -0.49387138       1.47976037
Li       1.68312000       0.71214300       1.49517000       0.34232542       0.02678987      -0.40885322
Li      -0.63270000       0.71448600       2.91870000       1.27455703       0.63494575      -1.33882124
P        0.80350700       4.44738000       2.80075000      -0.09357273      -0.89632873       0.92044927
S        4.50064000       1.46910000       1.07824000      -1.30378224      -0.67405892       0.27028619
S        1.40483000       2.48248000       3.30565000       0.15483800      -0.58751918      -0.93202849
S        4.65589000      -0.18029900       4.18513000      -0.35169657       0.23592545      -1.36406947
Li       4.47999000       2.51741000       3.10481000      -0.00190467       0.53463930       0.58763900
Li       0.85474100       3.11134000       5.43234000      -0.37841342      -0.81309646       0.60586606
S       -1.19413000       4.53661000       3.18146000       0.23100488      -0.76666902       0.42924773
Li       2.40352000       0.58911600       8.32041000       0.27511369      -0.11961080      -0.78556046
S       -2.03362000      -1.14550000       7.54083000      -1.45162479      -0.71471628       0.29483251
S        1.86321000      -0.12780700      10.38800000      -0.72806391       0.53648484       0.62983594
Li      -1.44434000      -0.30436500       9.57869000       0.23398787       0.17213844       0.62909444
P        2.44307000      -2.03231000      10.71270000       2.69394224       0.76088816      -1.30938519
P       -1.04304000      -0.02944100       6.29985000      -0.92266248       0.63516481      -0.99628756
S        2.23755000      -3.02865000       8.96380000      -0.35967882      -1.16030543      -0.06978231
S       -1.91320000      -2.40109000      10.97040000       0.49529886       0.40511998      -0.49085753
S       -1.22897000       2.06896000       6.50770000       0.12717550       1.90723044      -0.20363137
Li       0.56616500      -2.81213000       7.26978000      -0.04444615       0.47780147       0.10279373
S        0.81726100      -0.55447400       6.55720000       2.38340954      -0.05282023      -0.82541359
Li       1.38673000       7.77755000       1.91194000      -0.17009904       0.28712846      -0.26955034
S       -1.03670000       7.68646000       1.05915000       0.03648961      -1.29861278       0.06176561
S        1.45233000       5.41457000       1.19038000      -0.30160120      -0.15109910      -0.05204016
P        1.85509000       7.19284000       5.09097000      -1.69384945      -1.23119177       0.69469973
P       -1.73826000       9.53203000       1.05243000       0.51419698       2.43391629      -1.17096882
S        2.93705000       8.07152000       3.70023000      -0.28737786      -0.28849937      -0.77719306
Li      -2.10034000       6.47132000       2.86772000      -0.60149261       1.02515128      -0.35369638
S        1.75870000       4.94589000       4.61425000       0.78050053       2.11168096      -0.39425399
S        2.47374000       9.54992000       0.46779000       1.07957382       0.20395584       0.00492983
S       -1.35752000      10.57810000       2.84381000      -1.70095032       0.27471466      -1.20907514
Li       3.68841000       5.74770000       0.76521400       0.62177091      -0.04699977       0.18042408
Li      -1.01526000       7.11389000      10.63810000      -0.01034766      -0.16417522      -0.03574142
Li       1.43455000       5.36434000       8.07015000      -0.01185176       0.70694950       0.47909371
Li      -3.02952000       3.81561000       9.65773000      -0.01636456      -0.12057240       0.21382888
S       -3.27330000       6.13188000      10.89670000      -0.18030529      -0.26086207      -0.25643926
Li      -1.59706000       5.99932000       5.90278000       0.05799226      -0.24916972       0.28338236
P       -0.33101800       3.12236000       8.18315000       0.93835598      -1.19130162      -0.40073471
S       -1.21418000       4.85919000       8.35101000       0.10838383       1.94229206      -1.57738310
S       -3.35464000       7.26162000       7.04030000      -1.07161317      -0.85889398      -1.25649143
S        1.77612000       3.12294000       7.70763000      -0.93738359      -0.65645457       0.01414518
S       -0.05791000       7.78647000       5.54874000       0.43853918       0.38444729      -0.83366066
S       -0.90427700       2.24664000       9.81294000      -0.20219052      -1.79438626       1.56463866
S       10.38660000       0.41614500       4.42014000      -0.68831517      -1.26245999       1.37607806
S       10.24100000       1.24287000       0.92901400       1.51387171       0.50396039       1.96770124
Li       9.59877000       3.49888000       1.54737000      -0.15958169      -0.34428151       0.13260413
Li       6.00645000       0.11340000       2.30076000       0.37852603       0.14616876      -0.35323924
S        7.43710000       2.48431000       3.21616000      -0.31648326       0.35999969      -0.10420990
Li       8.60043000       0.32378100       0.19023300      -1.74212911      -0.81885830      -0.63060830
P        6.97527000       4.48683000       2.99953000       1.50109641       0.31955110      -0.61959524
Li       8.78007000       2.30909000       5.20141000      -0.18096710      -0.22777711       0.32916805
S        8.05891000       2.16325000       8.07080000      -0.27952725       0.90867928       0.69994735
Li       7.47771000      -1.01060000       8.28973000       0.74324113       0.38622392      -0.36818403
Li       5.64405000      -0.17764800       9.87548000      -0.57089443      -0.03199121       0.33509702
P        8.47837000      -2.26940000      10.64870000       0.28608511      -0.44558092       1.43824425
P        5.49759000       0.35698300       5.92553000      -0.74388494       1.32439889       1.59042579
S        7.38794000      -0.13055100       6.07765000       1.51266843      -0.27577858      -1.07699398
S        4.58291000      -2.05078000      10.93470000      -0.54566677      -0.09629656      -0.19737279
S        5.01242000       2.42368000       6.28859000       0.36570549      -1.01998336       0.24799576
S        7.95043000      -3.26375000       8.99796000      -0.46601913      -0.20146856      -1.30687271
S        4.63523000      -0.82447900       7.33995000      -1.09846166       0.06116654       1.02712434
S        7.85902000      -0.34815400      10.78660000       0.25712986       0.86727115      -1.31397358
Li       5.50974000      -2.74061000       8.35481000      -0.38245674      -0.88706144       0.27046360
S        8.23046000       5.39488000       1.63979000      -0.88595227      -0.16950615      -0.17860065
Li       7.91490000       7.97215000       0.64584200      -0.39015102      -0.66368503       0.10656143
S        8.79028000      10.03420000       0.22044500       0.47311435      -0.69271793       1.32036740
Li       4.00813000       9.96465000       4.28237000       0.63222090       0.38701376       0.30424686
S        8.61252000       8.16782000       3.58659000       0.24127129      -0.74759144       1.27489950
P        4.55074000       9.42788000       0.47871400       0.54864050       1.69645449       0.25157627
Li       7.79668000      10.13590000       2.76665000      -0.50359323       0.30816471      -0.03114274
S        5.29583000      10.57480000       2.22856000      -0.21651311      -0.33333324      -0.73122122
S        7.78576000       5.10531000       4.85030000       0.99162358      -1.02136610       1.47611146
S        5.30883000       7.59568000       0.61726900      -0.19585327      -1.34841814       1.15373832
P        7.77699000       7.16288000       5.24002000      -0.83468293       1.95375301      -0.02223079
S        5.09196000       5.10040000       3.04049000      -1.06128968      -0.59683480      -0.47659562
Li       4.73082000       5.64432000       5.34387000       0.09960505      -0.07040349       0.37534455
Li       7.27409000       6.63461000       9.24512000       0.02870740       0.18460006       0.04468166
S        3.02130000       5.79180000      10.14610000      -1.37103305      -0.21816993       0.41855554
Li       2.97701000       3.16858000       9.74613000       0.49439228       0.40420981      -0.49117738
S        5.93565000       4.98425000       7.96975000       0.00905645      -0.58899705       0.48827203
S        2.84320000       6.70856000       6.74656000       0.90588449       0.36870802       1.00154238
P        6.28375000       3.04359000       8.43411000      -0.38941877      -0.16910043      -1.42862936
S        5.81935000       7.70496000       5.55265000       1.28112157       0.12026695       0.15615081
S        5.16739000       2.08280000       9.90264000       0.24200457       0.82492199      -0.59104365
84
Lattice="12.375 0.0 0.0 -2.5754428754180116 11.867764321701818 0.0 -2.730270011857891 -4.41833150365321 11.2807594330424" Properties=species:S:1:pos:R:3:forces:R:3 energy=-20140.2833140963 pbc="T T T"
Li       2.64661000      -1.22290000       4.32960000       0.55070304      -0.49386829       1.47976551
Li       1.68312000       0.71214300       1.49517000       0.34233879       0.02680067      -0.40883523
Li      -0.63270000       0.71448600       2.91870000       1.27453852       0.63495347      -1.33881147
P        0.80350700       4.44738000       2.80075000      -0.09357067      -0.89633901       0.92043385
S        4.50064000       1.46910000       1.07824000      -1.30378430      -0.67405789       0.27028619
S        1.40483000       2.48248000       3.30565000       0.15484109      -0.58751198      -0.93202849
S        4.65589000      -0.18029900       4.18513000      -0.35169914       0.23592494      -1.36407153
Li       4.47999000       2.51741000       3.10481000      -0.00191084       0.53464136       0.58763334
Li       0.85474100       3.11134000       5.43234000      -0.37839234      -0.81310160       0.60586863
S       -1.19413000       4.53661000       3.18146000       0.23099665      -0.76667108       0.42925287
Li       2.40352000       0.58911600       8.32041000       0.27513221      -0.11960875      -0.78557229
S       -2.03362000      -1.14550000       7.54083000      -1.45163302      -0.71471988       0.29483766
S        1.86321000      -0.12780700      10.38800000      -0.72806699       0.53648998       0.62983800
Li      -1.44434000      -0.30436500       9.57869000       0.23396884       0.17214358       0.62908312
P        2.44307000      -2.03231000      10.71270000       2.69394121       0.76087890      -1.30939188
P       -1.04304000      -0.02944100       6.29985000      -0.92265939       0.63515298      -0.99628499
S        2.23755000      -3.02865000       8.96380000      -0.35967882      -1.16030595      -0.06977511
S       -1.91320000      -2.40109000      10.97040000       0.49529166       0.40511998      -0.49086062
S       -1.22897000       2.06896000       6.50770000       0.12716985       1.90723301      -0.20363703
Li       0.56616500      -2.81213000       7.26978000      -0.04442609       0.47781587       0.10278910
S        0.81726100      -0.55447400       6.55720000       2.38341931      -0.05282023      -0.82541050
Li       1.38673000       7.77755000       1.91194000      -0.17008979       0.28712126      -0.26954006
S       -1.03670000       7.68646000       1.05915000       0.03649475      -1.29862564       0.06176407
S        1.45233000       5.41457000       1.19038000      -0.30159966      -0.15109602      -0.05204016
P        1.85509000       7.19284000       5.09097000      -1.69385407      -1.23118612       0.69470025
P       -1.73826000       9.53203000       1.05243000       0.51418772       2.43392864      -1.17098477
S        2.93705000       8.07152000       3.70023000      -0.28736706      -0.28849680      -0.77720540
Li      -2.10034000       6.47132000       2.86772000      -0.60151267       1.02513225      -0.35369586
S        1.75870000       4.94589000       4.61425000       0.78050721       2.11167171      -0.39424576
S        2.47374000       9.54992000       0.46779000       1.07956251       0.20395224       0.00493189
S       -1.35752000      10.57810000       2.84381000      -1.70094723       0.27471672      -1.20906383
Li       3.68841000       5.74770000       0.76521400       0.62177245      -0.04700388       0.18043693
Li      -1.01526000       7.11389000      10.63810000      -0.01034149      -0.16418499      -0.03572754
Li       1.43455000       5.36434000       8.07015000      -0.01186410       0.70693870       0.47908754
Li      -3.02952000       3.81561000       9.65773000      -0.01634245      -0.12057960       0.21383865
S       -3.27330000       6.13188000      10.89670000      -0.18030632      -0.26086670      -0.25643874
Li      -1.59706000       5.99932000       5.90278000       0.05799689      -0.24918206       0.28338133
P       -0.33101800       3.12236000       8.18315000       0.93835906      -1.19128928      -0.40074139
S       -1.21418000       4.85919000       8.35101000       0.10838125       1.94230080      -1.57737847
S       -3.35464000       7.26162000       7.04030000      -1.07161728      -0.85889758      -1.25650069
S        1.77612000       3.12294000       7.70763000      -0.93736765      -0.65645560       0.01414261
S       -0.05791000       7.78647000       5.54874000       0.43852581       0.38444780      -0.83366220
S       -0.90427700       2.24664000       9.81294000      -0.20219207      -1.79439244       1.56465614
S       10.38660000       0.41614500       4.42014000      -0.68832185      -1.26245433       1.37606881
S       10.24100000       1.24287000       0.92901400       1.51387480       0.50396142       1.96769970
Li       9.59877000       3.49888000       1.54737000      -0.15956626      -0.34426968       0.13262624
Li       6.00645000       0.11340000       2.30076000       0.37851369       0.14616156      -0.35324798
S        7.43710000       2.48431000       3.21616000      -0.31647966       0.35998941      -0.10420938
Li       8.60043000       0.32378100       0.19023300      -1.74213888      -0.81886962      -0.63060573
P        6.97527000       4.48683000       2.99953000       1.50109898       0.31954184      -0.61959061
Li       8.78007000       2.30909000       5.20141000      -0.18094961      -0.22778123       0.32918194
S        8.05891000       2.16325000       8.07080000      -0.27952622       0.90867876       0.69995044
Li       7.47771000      -1.01060000       8.28973000       0.74323805       0.38623574      -0.36816192
Li       5.64405000      -0.17764800       9.87548000      -0.57091603      -0.03200766       0.33507748
P        8.47837000      -2.26940000      10.64870000       0.28609179      -0.44558246       1.43824991
P        5.49759000       0.35698300       5.92553000      -0.74388236       1.32439786       1.59043299
S        7.38794000      -0.13055100       6.07765000       1.51266689      -0.27577755      -1.07699963
S        4.58291000      -2.05078000      10.93470000      -0.54566522      -0.09629450      -0.19737022
S        5.01242000       2.42368000       6.28859000       0.36570549      -1.01998491       0.24799576
S        7.95043000      -3.26375000       8.99796000      -0.46601862      -0.20146753      -1.30687220
S        4.63523000      -0.82447900       7.33995000      -1.09846320       0.06116706       1.02712177
S        7.85902000      -0.34815400      10.78660000       0.25713243       0.86727063      -1.31397153
Li       5.50974000      -2.74061000       8.35481000      -0.38245982      -0.88704962       0.27046874
S        8.23046000       5.39488000       1.63979000      -0.88594507      -0.16949638      -0.17860939
Li       7.91490000       7.97215000       0.64584200      -0.39015411      -0.66367372       0.10655217
S        8.79028000      10.03420000       0.22044500       0.47311486      -0.69272255       1.32036843
Li       4.00813000       9.96465000       4.28237000       0.63220239       0.38702045       0.30424635
S        8.61252000       8.16782000       3.58659000       0.24127695      -0.74758887       1.27489179
P        4.55074000       9.42788000       0.47871400       0.54864667       1.69645809       0.25157884
Li       7.79668000      10.13590000       2.76665000      -0.50361535       0.30814671      -0.03114943
S        5.29583000      10.57480000       2.22856000      -0.21651363      -0.33333324      -0.73121917
S        7.78576000       5.10531000       4.85030000       0.99162718      -1.02136405       1.47611352
S        5.30883000       7.59568000       0.61726900      -0.19585173      -1.34842122       1.15374089
P        7.77699000       7.16288000       5.24002000      -0.83468550       1.95375198      -0.02220610
S        5.09196000       5.10040000       3.04049000      -1.06130408      -0.59682503      -0.47659768
Li       4.73082000       5.64432000       5.34387000       0.09959991      -0.07039423       0.37533272
Li       7.27409000       6.63461000       9.24512000       0.02872334       0.18461601       0.04468629
S        3.02130000       5.79180000      10.14610000      -1.37102739      -0.21816684       0.41855143
Li       2.97701000       3.16858000       9.74613000       0.49440257       0.40420416      -0.49116709
S        5.93565000       4.98425000       7.96975000       0.00906108      -0.58901454       0.48827974
S        2.84320000       6.70856000       6.74656000       0.90589066       0.36870082       1.00155164
P        6.28375000       3.04359000       8.43411000      -0.38942700      -0.16907729      -1.42863501
S        5.81935000       7.70496000       5.55265000       1.28112311       0.12026798       0.15614361
S        5.16739000       2.08280000       9.90264000       0.24200868       0.82492199      -0.59104622
84
Lattice="12.375 0.0 0.0 -2.5754428754180116 11.867764321701818 0.0 -2.730270011857891 -4.41833150365321 11.2807594330424" Properties=species:S:1:pos:R:3:forces:R:3 energy=-20140.283314093507 pbc="T T T"
Li       2.64661000      -1.22290000       4.32960000       0.55070356      -0.49386778       1.47976603
Li       1.68312000       0.71214300       1.49517000       0.34233879       0.02680067      -0.40883420
Li      -0.63270000       0.71448600       2.91870000       1.27453800       0.63495295      -1.33881095
P        0.80350700       4.44738000       2.80075000      -0.09357067      -0.89633181       0.92044465
S        4.50064000       1.46910000       1.07824000      -1.30378481      -0.67405789       0.27028465
S        1.40483000       2.48248000       3.30565000       0.15484109      -0.58751456      -0.93203055
S        4.65589000      -0.18029900       4.18513000      -0.35169863       0.23592648      -1.36406844
Li       4.47999000       2.51741000       3.10481000      -0.00191084       0.53464136       0.58763283
Li       0.85474100       3.11134000       5.43234000      -0.37839234      -0.81310212       0.60586863
S       -1.19413000       4.53661000       3.18146000       0.23100128      -0.76667211       0.42925133
Li       2.40352000       0.58911600       8.32041000       0.27513272      -0.11960875      -0.78557126
S       -2.03362000      -1.14550000       7.54083000      -1.45162787      -0.71471526       0.29483097
S        1.86321000      -0.12780700      10.38800000      -0.72806751       0.53648844       0.62983800
Li      -1.44434000      -0.30436500       9.57869000       0.23396936       0.17214410       0.62908312
P        2.44307000      -2.03231000      10.71270000       2.69394841       0.76088404      -1.30938519
P       -1.04304000      -0.02944100       6.29985000      -0.92266145       0.63515915      -0.99628293
S        2.23755000      -3.02865000       8.96380000      -0.35967882      -1.16030749      -0.06977871
S       -1.91320000      -2.40109000      10.97040000       0.49529011       0.40511895      -0.49085959
S       -1.22897000       2.06896000       6.50770000       0.12717602       1.90723095      -0.20363188
Li       0.56616500      -2.81213000       7.26978000      -0.04442558       0.47781535       0.10278910
S        0.81726100      -0.55447400       6.55720000       2.38341211      -0.05281869      -0.82541205
Li       1.38673000       7.77755000       1.91194000      -0.17008927       0.28712229      -0.26954109
S       -1.03670000       7.68646000       1.05915000       0.03649167      -1.29861793       0.06176355
S        1.45233000       5.41457000       1.19038000      -0.30159966      -0.15109705      -0.05204016
P        1.85509000       7.19284000       5.09097000      -1.69385047      -1.23118972       0.69469768
P       -1.73826000       9.53203000       1.05243000       0.51419492       2.43392041      -1.17097602
S        2.93705000       8.07152000       3.70023000      -0.28737580      -0.28850194      -0.77719615
Li      -2.10034000       6.47132000       2.86772000      -0.60151267       1.02513277      -0.35369586
S        1.75870000       4.94589000       4.61425000       0.78050310       2.11167839      -0.39425244
S        2.47374000       9.54992000       0.46779000       1.07956971       0.20395327       0.00493240
S       -1.35752000      10.57810000       2.84381000      -1.70094929       0.27471466      -1.20907000
Li       3.68841000       5.74770000       0.76521400       0.62177348      -0.04700388       0.18043642
Li      -1.01526000       7.11389000      10.63810000      -0.01034149      -0.16418602      -0.03572754
Li       1.43455000       5.36434000       8.07015000      -0.01186307       0.70693921       0.47908702
Li      -3.02952000       3.81561000       9.65773000      -0.01634296      -0.12058062       0.21383814
S       -3.27330000       6.13188000      10.89670000      -0.18030838      -0.26086618      -0.25643720
Li      -1.59706000       5.99932000       5.90278000       0.05799740      -0.24918155       0.28337979
P       -0.33101800       3.12236000       8.18315000       0.93835289      -1.19129442      -0.40073368
S       -1.21418000       4.85919000       8.35101000       0.10838845       1.94229000      -1.57738053
S       -3.35464000       7.26162000       7.04030000      -1.07161420      -0.85889706      -1.25649554
S        1.77612000       3.12294000       7.70763000      -0.93737999      -0.65645406       0.01414570
S       -0.05791000       7.78647000       5.54874000       0.43853404       0.38444574      -0.83366477
S       -0.90427700       2.24664000       9.81294000      -0.20218744      -1.79438575       1.56464277
S       10.38660000       0.41614500       4.42014000      -0.68831774      -1.26245793       1.37607344
S       10.24100000       1.24287000       0.92901400       1.51387685       0.50396193       1.96769610
Li       9.59877000       3.49888000       1.54737000      -0.15956626      -0.34427020       0.13262573
Li       6.00645000       0.11340000       2.30076000       0.37851318       0.14616156      -0.35324849
S        7.43710000       2.48431000       3.21616000      -0.31647966       0.35999455      -0.10420887
Li       8.60043000       0.32378100       0.19023300      -1.74213888      -0.81886910      -0.63060573
P        6.97527000       4.48683000       2.99953000       1.50109487       0.31954493      -0.61959267
Li       8.78007000       2.30909000       5.20141000      -0.18094961      -0.22778123       0.32918194
S        8.05891000       2.16325000       8.07080000      -0.27952725       0.90868031       0.69995044
Li       7.47771000      -1.01060000       8.28973000       0.74323805       0.38623626      -0.36816243
Li       5.64405000      -0.17764800       9.87548000      -0.57091603      -0.03200766       0.33507799
P        8.47837000      -2.26940000      10.64870000       0.28608665      -0.44557989       1.43824837
P        5.49759000       0.35698300       5.92553000      -0.74387722       1.32439581       1.59043248
S        7.38794000      -0.13055100       6.07765000       1.51266175      -0.27577652      -1.07700015
S        4.58291000      -2.05078000      10.93470000      -0.54566985      -0.09629398      -0.19737176
S        5.01242000       2.42368000       6.28859000       0.36570446      -1.01998542       0.24799318
S        7.95043000      -3.26375000       8.99796000      -0.46601708      -0.20146496      -1.30686808
S        4.63523000      -0.82447900       7.33995000      -1.09846372       0.06116809       1.02712126
S        7.85902000      -0.34815400      10.78660000       0.25713448       0.86726549      -1.31397255
Li       5.50974000      -2.74061000       8.35481000      -0.38245931      -0.88705013       0.27046925
S        8.23046000       5.39488000       1.63979000      -0.88594970      -0.16949895      -0.17860425
Li       7.91490000       7.97215000       0.64584200      -0.39015411      -0.66367423       0.10655269
S        8.79028000      10.03420000       0.22044500       0.47311486      -0.69271998       1.32036637
Li       4.00813000       9.96465000       4.28237000       0.63220187       0.38702045       0.30424635
S        8.61252000       8.16782000       3.58659000       0.24127901      -0.74758938       1.27489436
P        4.55074000       9.42788000       0.47871400       0.54863742       1.69645295       0.25157679
Li       7.79668000      10.13590000       2.76665000      -0.50361535       0.30814723      -0.03114943
S        5.29583000      10.57480000       2.22856000      -0.21651260      -0.33333273      -0.73121865
S        7.78576000       5.10531000       4.85030000       0.99162667      -1.02136610       1.47611198
S        5.30883000       7.59568000       0.61726900      -0.19585224      -1.34841865       1.15374089
P        7.77699000       7.16288000       5.24002000      -0.83469064       1.95375147      -0.02221690
S        5.09196000       5.10040000       3.04049000      -1.06129482      -0.59682863      -0.47659768
Li       4.73082000       5.64432000       5.34387000       0.09959939      -0.07039372       0.37533221
Li       7.27409000       6.63461000       9.24512000       0.02872334       0.18461703       0.04468629
S        3.02130000       5.79180000      10.14610000      -1.37102739      -0.21816582       0.41855245
Li       2.97701000       3.16858000       9.74613000       0.49440257       0.40420364      -0.49116709
S        5.93565000       4.98425000       7.96975000       0.00905748      -0.58900168       0.48827614
S        2.84320000       6.70856000       6.74656000       0.90588655       0.36870391       1.00154650
P        6.28375000       3.04359000       8.43411000      -0.38941671      -0.16909374      -1.42863296
S        5.81935000       7.70496000       5.55265000       1.28112260       0.12026798       0.15614412
S        5.16739000       2.08280000       9.90264000       0.24200508       0.82492045      -0.59104262
84
Lattice="12.375 0.0 0.0 -2.5754428754180116 11.867764321701818 0.0 -2.730270011857891 -4.41833150365321 11.2807594330424" Properties=species:S:1:pos:R:3:forces:R:3 energy=-20140.28331409975 pbc="T T T"
Li       2.64661000      -1.22290000       4.32960000       0.55070356      -0.49386778       1.47976551
Li       1.68312000       0.71214300       1.49517000       0.34233879       0.02680067      -0.40883471
Li      -0.63270000       0.71448600       2.91870000       1.27453749       0.63495295      -1.33881044
P        0.80350700       4.44738000       2.80075000      -0.09357016      -0.89633490       0.92044105
S        4.50064000       1.46910000       1.07824000      -1.30378481      -0.67405737       0.27028465
S        1.40483000       2.48248000       3.30565000       0.15484109      -0.58751404      -0.93202952
S        4.65589000      -0.18029900       4.18513000      -0.35169914       0.23592545      -1.36406947
Li       4.47999000       2.51741000       3.10481000      -0.00191084       0.53464136       0.58763283
Li       0.85474100       3.11134000       5.43234000      -0.37839182      -0.81310212       0.60586863
S       -1.19413000       4.53661000       3.18146000       0.23099922      -0.76667159       0.42925236
Li       2.40352000       0.58911600       8.32041000       0.27513272      -0.11960875      -0.78557126
S       -2.03362000      -1.14550000       7.54083000      -1.45162993      -0.71471731       0.29483354
S        1.86321000      -0.12780700      10.38800000      -0.72806751       0.53648896       0.62983851
Li      -1.44434000      -0.30436500       9.57869000       0.23396936       0.17214410       0.62908364
P        2.44307000      -2.03231000      10.71270000       2.69394790       0.76088250      -1.30938776
P       -1.04304000      -0.02944100       6.29985000      -0.92266094       0.63515555      -0.99628448
S        2.23755000      -3.02865000       8.96380000      -0.35967882      -1.16030800      -0.06977717
S       -1.91320000      -2.40109000      10.97040000       0.49529011       0.40511895      -0.49085959
S       -1.22897000       2.06896000       6.50770000       0.12717345       1.90723095      -0.20363446
Li       0.56616500      -2.81213000       7.26978000      -0.04442558       0.47781535       0.10278910
S        0.81726100      -0.55447400       6.55720000       2.38341571      -0.05281920      -0.82541153
Li       1.38673000       7.77755000       1.91194000      -0.17008927       0.28712177      -0.26954109
S       -1.03670000       7.68646000       1.05915000       0.03649321      -1.29862153       0.06176407
S        1.45233000       5.41457000       1.19038000      -0.30159914      -0.15109602      -0.05204118
P        1.85509000       7.19284000       5.09097000      -1.69385047      -1.23118766       0.69470025