84
Lattice="12.37549515 0.0 0.0 -2.57550726 11.86797731 0.0 -2.73043011 -4.41844128 11.28104536" Properties=species:S:1:pos:R:3:forces:R:3:delta_forces:R:3 delta_energy=-595937.346161113 stress="-0.01314051 -0.00167765 0.00179404 -0.00167765 -0.02002085 -5.166e-05 0.00179404 -5.166e-05 -0.01800616" virials="-21.77212696178104 -2.779649252383048 2.972492441656653 -2.779649252383048 -33.171961216328285 -0.0855939441350152 2.972492441656653 -0.0855939441350152 -29.833880238601346" energy=-596318.715111113 pbc="T T T"
Li       2.64661000      -1.22290000       4.32960000       0.54606179      -0.47971272       1.51245928       0.70161279      -0.62191872       1.58003038
Li       1.68312000       0.71214300       1.49517000       0.35149825       0.00216428      -0.37694751       0.13334125      -0.11396172      -0.33698301
Li      -0.63270000       0.71448600       2.91870000       1.31683425       0.59147605      -1.40064461       1.65795725       0.59021547      -1.44533221
P        0.80350700       4.44738000       2.80075000      -0.07881211      -0.86284874       1.01016231      -0.17026411       0.19808126       2.09243231
S        4.50064000       1.46910000       1.07824000      -1.26265918      -0.66710017       0.32131021      -2.08945918      -1.54125017       1.44901021
S        1.40483000       2.48248000       3.30565000       0.16783155      -0.57819681      -0.96917644       0.86884555      -2.03599681      -0.69216944
S        4.65589000      -0.18029900       4.18513000      -0.37421847       0.27570006      -1.31150704      -1.16541147      -0.05613494      -2.73896704
Li       4.47999000       2.51741000       3.10481000       0.04948420       0.45936617       0.58990730       0.33904820       0.68512617       0.59930046
Li       0.85474100       3.11134000       5.43234000      -0.41623244      -0.74791709       0.60672897      -0.85642344      -0.57856009       0.79179997
S       -1.19413000       4.53661000       3.18146000       0.20611094      -0.75293054       0.42729805      -1.47218906      -1.08580754       0.31780505
Li       2.40352000       0.58911600       8.32041000       0.26915595      -0.11566919      -0.77531130       0.19639685       0.06325381      -0.82310610
S       -2.03362000      -1.14550000       7.54083000      -1.50913151      -0.79906682       0.37261294      -2.71810151      -2.11825682       1.13208794
S        1.86321000      -0.12780700      10.38800000      -0.74613047       0.53128039       0.59795503      -1.14026547       1.89004039       0.42224703
Li      -1.44434000      -0.30436500       9.57869000       0.20304065       0.15339685       0.66262006       0.26787365       0.18235025       0.42620506
P        2.44307000      -2.03231000      10.71270000       2.64846602       0.67758604      -1.24110167       2.57536122       0.61957664      -0.24059167
P       -1.04304000      -0.02944140       6.29985000      -0.91393545       0.70190799      -1.12202250       0.27143455       1.60690199      -0.53925650
S        2.23755000      -3.02865000       8.96380000      -0.38523489      -1.10684551      -0.11779726      -0.56803789      -1.87378251      -1.88781726
S       -1.91320000      -2.40109000      10.97040000       0.57006127       0.35574894      -0.47389604       2.03990127      -0.01522506      -0.71446804
S       -1.22897000       2.06896000       6.50770000       0.07812716       1.84874123      -0.21131152      -1.26029284       2.23834623      -1.29136152
Li       0.56616500      -2.81213000       7.26978000       0.01511513       0.45420425       0.08452232      -0.20680187       0.73747525      -0.11989268
S        0.81726100      -0.55447400       6.55720000       2.42703895      -0.06899884      -0.78999679       4.16739895      -0.95848084      -0.71503709
Li       1.38673000       7.77755000       1.91194000      -0.15974111       0.23040949      -0.27599036      -0.28246211       0.08404649       0.29055164
S       -1.03670000       7.68646000       1.05915000       0.11909813      -1.30961927       0.09510354       0.82011513      -3.01713927      -0.35073246
S        1.45233000       5.41457000       1.19038000      -0.28934200      -0.10260529      -0.17363535       0.03002300       0.73846971      -2.30485535
P        1.85509000       7.19284000       5.09097000      -1.61048525      -1.28670287       0.60983888      -3.22745525      -1.89778887      -1.28816112
P       -1.73826000       9.53203000       1.05243000       0.41805427       2.48415865      -1.15457796      -0.25083773       1.92003265      -0.72840296
S        2.93705000       8.07152000       3.70023000      -0.20084130      -0.23449068      -0.75500514       1.35640870       0.45881432      -1.69120814
Li      -2.10034000       6.47132000       2.86772000      -0.64839899       1.03133465      -0.33127807      -0.56424009       1.15379665       0.06037193
S        1.75870000       4.94589000       4.61425000       0.76517776       2.08895000      -0.33829724       2.08570776       1.08585000       0.77262276
S        2.47374000       9.54992000       0.46779000       1.00108729       0.21785760       0.00366927      -0.83777271       0.20461830       0.06922537
S       -1.35752000      10.57810000       2.84381000      -1.69597887       0.24616858      -1.26152748      -1.33976887       0.94337358      -0.05921748
Li       3.68841000       5.74770000       0.76521400       0.59341834      -0.02419877       0.12519236       0.59878484      -0.07225867       0.24973636
Li      -1.01526000       7.11389000      10.63810000      -0.02486658      -0.13081078      -0.03106673       0.45050542       0.22659622       0.12505527
Li       1.43455000       5.36434000       8.07015000      -0.04867161       0.63095850       0.44348613      -0.65019661       0.18912050       0.47230073
Li      -3.02952000       3.81561000       9.65773000      -0.02248165      -0.10791502       0.22098043      -0.33420265      -0.16348272       0.11885543
S       -3.27330000       6.13188000      10.89670000      -0.12473128      -0.27600525      -0.18180173       0.96478872       0.59942675      -1.36181173
Li      -1.59706000       5.99932000       5.90278000       0.02329220      -0.20822095       0.25880927       0.12363220      -0.46952395      -0.19269573
P       -0.33101800       3.12236000       8.18315000       1.07205688      -1.12527720      -0.58380791       2.37107688      -1.61516520      -2.04054791
S       -1.21418000       4.85919000       8.35101000       0.05968617       2.00226182      -1.46788767      -1.26914383       3.95481182      -0.87276967
S       -3.35464000       7.26162000       7.04030000      -1.07310752      -0.82741645      -1.29390413      -0.46144352      -0.73600465       0.55877587
S        1.77612000       3.12294000       7.70763000      -0.93260418      -0.67726961      -0.01795385       1.08952582      -0.57887271      -0.54218085
S       -0.05790990       7.78647000       5.54874000       0.31328509       0.40134637      -0.76696689      -1.15585491       1.43490637       0.32508311
S       -0.90427700       2.24664000       9.81294000      -0.23668972      -1.85176925       1.73260496      -1.13930572      -2.60189625       3.84617496
S       10.38660000       0.41614500       4.42014000      -0.76065714      -1.25713293       1.46916986      -2.12897714      -0.93105593       0.19952986
S       10.24100000       1.24287000       0.92901400       1.50791646       0.49843237       1.98511901       0.54178546      -0.48407263       3.09582901
Li       9.59877000       3.49888000       1.54737000      -0.16833046      -0.34707297       0.14020414      -0.10479696      -0.37891537       0.18548774
Li       6.00645000       0.11340000       2.30076000       0.31949632       0.12670923      -0.30609772       0.27030142       0.09491523      -0.48248172
S        7.43710000       2.48431000       3.21616000      -0.35638505       0.39886329      -0.09936656       0.59137595      -1.44912671      -0.16449616
Li       8.60043000       0.32378100       0.19023300      -1.74914157      -0.85736097      -0.65609874      -2.10533457      -0.91997177      -0.73357624
P        6.97527000       4.48683000       2.99953000       1.47950048       0.23962405      -0.58019121       1.07723348       0.54193705       0.13515879
Li       8.78007000       2.30909000       5.20141000      -0.14546708      -0.24148655       0.34632954      -0.26004308       0.06715545       0.53210654
S        8.05891000       2.16325000       8.07080000      -0.23024515       0.87684017       0.60800689       1.43384485      -0.04649083       0.40136189
Li       7.47771000      -1.01060000       8.28973000       0.68947869       0.36650687      -0.27779621       0.35546169       0.49404887       0.05801279
Li       5.64405000      -0.17764800       9.87548000      -0.51212814      -0.07684592       0.29819635      -0.42345844      -0.18952292      -0.12327165
P        8.47837000      -2.26940000      10.64870000       0.27621914      -0.36385078       1.34366444       0.22362184       0.69763922       1.69925944
P        5.49759000       0.35698300       5.92553000      -0.78398476       1.26077896       1.44054487      -0.79436276       2.05731496       2.12563387
S        7.38794000      -0.13055100       6.07765000       1.61823145      -0.25839448      -1.05580151       3.75807145      -0.87002048      -1.27478551
S        4.58291000      -2.05078000      10.93470000      -0.52162862      -0.11098589      -0.20086589       0.80734138      -0.19715799      -0.04488889
S        5.01242000       2.42368000       6.28859000       0.42336815      -0.89825394       0.30808564      -0.69094185       0.56018606      -0.16181336
S        7.95043000      -3.26375000       8.99796000      -0.46401251      -0.25128064      -1.30726265      -0.68957651      -1.89743064      -2.94511265
S        4.63523000      -0.82447900       7.33995000      -1.02903547       0.03774320       1.07478485      -2.06074547      -1.10303680       1.91870085
S        7.85902000      -0.34815400      10.78660000       0.19867357       0.87834280      -1.30957609      -0.12012643       2.67475280      -0.97619509
Li       5.50974000      -2.74061000       8.35481000      -0.33701680      -0.82167333       0.29660951      -0.37091930      -0.45697933       0.34391061
S        8.23046000       5.39488000       1.63979000      -0.81450267      -0.13236018      -0.21376508       0.14271633       0.53495982      -1.84667508
Li       7.91490000       7.97215000       0.64584200      -0.36217768      -0.67280310       0.14554514      -0.10342368      -0.46019810       0.23178784
S        8.79028000      10.03420000       0.22044500       0.40392755      -0.61232351       1.22442856      -1.26083245       0.33584249       0.24816056
Li       4.00813000       9.96465000       4.28237000       0.61204525       0.41873687       0.30052777       0.21210125       0.60400887       0.46559577
S        8.61252000       8.16782000       3.58659000       0.21155051      -0.75292730       1.18102924       0.53171051       0.05116270       0.29318224
P        4.55074000       9.42788000       0.47871400       0.55152308       1.76231163       0.27703641      -0.28407592       1.99167263      -0.57813259
Li       7.79668000      10.13590000       2.76665000      -0.41789644       0.35046023      -0.09328770      -0.06485544       0.11177323      -0.12073890
S        5.29583000      10.57480000       2.22856000      -0.19821123      -0.39981010      -0.77297058       0.70465577       0.43189790       0.50307942
S        7.78576000       5.10531000       4.85030000       0.97853051      -1.00898881       1.45516304       1.41011251      -2.04888881       2.63469304
S        5.30883000       7.59568000       0.61726900      -0.15073160      -1.34453583       1.18070277       0.60559140      -2.90720583       1.64230377
P        7.77699000       7.16288000       5.24002000      -0.67997529       1.83417540       0.06826314       0.34181471       0.86121240      -1.73038686
S        5.09196000       5.10040000       3.04049000      -1.13336316      -0.55306314      -0.44370020      -2.71711316       0.38393186      -0.57259420
Li       4.73082000       5.64432000       5.34387000       0.07066012      -0.07943355       0.36839608       0.20326012      -0.27337755      -0.05914992
Li       7.27409000       6.63461000       9.24512000       0.00887029       0.17959968       0.06778651       0.14170929      -0.01824932       0.31244451
S        3.02130000       5.79180000      10.14610000      -1.33492757      -0.25102296       0.37933523       0.40165243       0.63380504      -1.03342477
Li       2.97701000       3.16858000       9.74613000       0.47573923       0.42777891      -0.49399699       0.14823423       0.54559891      -0.51204669
S        5.93565000       4.98425000       7.96975000       0.03266208      -0.55477581       0.36541653      -0.96755792       1.66630419       0.04205553
S        2.84320000       6.70856000       6.74656000       0.93516222       0.37685797       1.05639797       2.59323222       0.04643697       2.85811797
P        6.28375000       3.04359000       8.43411000      -0.46253410      -0.21886130      -1.38134374      -0.06455610      -1.35261130      -1.40941374
S        5.81935000       7.70496000       5.55265000       1.13618846       0.15252919       0.08402844      -0.59989154       0.86131519       1.06892144
S        5.16739000       2.08280000       9.90264000       0.22292130       0.83552311      -0.52449921      -0.63403770       0.08273111       1.05177079
