84
Lattice="12.37549515 0.0 0.0 -2.57550726 11.86797731 0.0 -2.73043011 -4.41844128 11.28104536" Properties=species:S:1:pos:R:3:forces:R:3:delta_forces:R:3 delta_energy=-595939.721198575 stress="-0.02489255 -0.0016924 0.00267682 -0.0016924 -0.01484433 -0.00428985 0.00267682 -0.00428985 -0.0285929" virials="-41.24373856132545 -2.804088096285322 4.435144822676953 -2.804088096285322 -24.59513652229443 -7.107727085706445 4.435144822676953 -7.107727085706445 -47.374740326327455" energy=-596315.669518575 pbc="T T T"
Li       4.06536000       5.04781000       1.06727000       0.18031208       0.05042176       0.10925658       0.34756608      -0.12656724       0.25384058
Li       2.34442000       2.62429000       1.32604000      -0.05985635       0.24815989      -0.64101177      -0.26316835       1.09808589      -0.73291657
Li      -0.60733100       3.36996000       1.41688000      -0.01675543       0.03152673      -0.17574186       0.42430257       0.11824613      -0.28957486
P        0.94772000       4.34831000       3.21614000       0.79899071      -0.02017549      -0.14136672       0.58879371       1.15143451       0.88826328
S        1.75326000       5.24746000       1.54094000      -0.24236252       0.05797142      -0.26126811       0.00176548       1.27096142      -2.03893811
S        1.31629000       2.36874000       3.20303000      -0.76060461      -0.44985034       0.39821234      -0.01341461      -3.25563034       0.20964834
S        4.06342000       0.33537100       4.50883000      -1.11430897      -0.82102196       0.32361660      -2.66960897      -0.86946156      -2.22627340
S        4.25486000       1.61267000       1.08716000       0.44808803      -0.44458895       0.52136137      -0.52457497      -2.08013895       2.24107137
Li       1.78894000       1.65706000       5.35743000       0.37371833       0.11805632       0.15057962      -0.00683967       0.50777432       0.64759762
Li      -0.43889200      -2.22633000       8.82966000       0.45066977      -0.48407965      -0.11353527       0.37925427       0.01448635      -0.16235327
Li       4.73880000      -2.17407000       5.80884000       0.01037343      -0.30338065      -0.14752033       0.13213143      -0.22528595      -0.08023503
Li       1.24697000       0.39525300       8.08702000       0.24007443      -0.41988294       0.17758456      -0.26532857      -0.12864694       0.05580356
Li      -1.39506000       0.09024190      10.45560000      -0.24155480      -0.31266829      -0.11675257      -0.17261730      -0.70984029      -0.15206297
P        2.29722000      -2.29871000      10.62170000      -1.53265346       1.27690797      -0.69765702      -1.35032346       3.39191797       0.18305898
P       -1.10010000       0.05725330       6.05106000       0.53005592       1.77039943      -0.52372406       1.32738592       2.04864943       1.32196594
S        0.88118500      -0.39099900       5.86096000      -0.00204889      -0.08625496      -0.02447909       1.96595111      -0.74795996      -1.08569909
S       -1.67862000      -2.50616000      10.74910000      -0.55101401      -0.00806889       0.22332223       0.93595599      -1.12101889       0.43895323
S       -1.05048000       2.39641000       6.50255000      -0.39189219      -0.46392182      -0.61888744      -1.51510219      -0.07747082      -1.57184344
S        1.71553000      -3.15941000       8.91963000      -0.37440140      -0.22045396      -0.36300083      -0.62470640      -1.76750396      -1.96641083
S       -1.79190000      -0.77357000       7.70441000      -0.94574018      -0.16150248       0.20531576      -1.84021318      -0.94315448       1.40879576
S        1.79494000      -0.08529080      10.30930000      -0.00080478      -1.07929388      -0.11620653      -0.22698578      -0.28905288      -0.50951953
S        1.80494000       2.63273000       7.76196000       0.55977804       0.55788578       0.13824362       2.42583804       0.47826788      -0.28958238
Li       3.38724000       6.41461000       2.90164000       0.30132260       0.25407740      -0.16137702       0.04905860       0.05482040       0.16633498
Li      -1.89257000       9.32707000       5.26850000       0.10071381      -0.32495439      -0.44426463      -0.50765819      -0.45211739      -0.35524843
Li      -1.50715000       6.73458000       4.27332000      -0.20609970       0.21258011      -0.52398498      -0.25494630       0.04297611      -0.46241948
P        1.93104000       7.35703000       5.18740000      -0.10818367      -1.15278609       0.12019773      -0.61552367      -2.07360409      -1.77433227
P       -1.38467000       9.57754000       0.68679900       0.59895912      -0.14741472       0.49602408      -0.52362088      -1.84532472      -0.97712592
S        2.69714000       8.38615000       3.67341000      -0.15686687       0.59317937       0.04017542       0.34011113       2.27551937      -1.62376458
S       -1.05352000       4.70541000       3.24501000      -0.17777721       0.02045220       0.65234244      -2.14394721       0.29966420       0.15762544
S        2.15909000       5.04063000       4.78792000      -0.16933413       0.67742125      -0.07620114       1.55673587      -0.10045175       1.18566886
S        0.00503713       7.78174000       5.62802000       0.07766375      -0.09539245       0.26944234      -1.61588625       0.67213855       1.61023234
S       -0.78471200      10.57600000       2.31273000       0.45634028       0.10002069       0.21473285       1.35769628       1.51056069       1.54888285
S        2.54041000      10.00260000       0.75007100       0.85424978       0.40401044       0.20790077      -1.28212022       1.12181444       1.10283977
S       -1.08431000       7.55113000       0.88080300       0.35105941       0.01072931      -0.15088542       1.06672641      -1.44157069       0.03879958
Li      -1.41227000       4.67818000      10.39100000      -0.10436722      -0.32677711      -0.12211706       0.09534478      -0.78303911      -0.39246506
S       -3.33560000       5.91618000      10.19580000      -0.10722325       0.19118665      -0.27303698       0.85354575       1.54428665      -1.09074398
Li       0.38308700       4.58116000       6.11775000      -0.12356156       0.02516073      -0.11112884      -0.11408268      -0.32058327      -0.44182884
Li      -3.27923000       4.70430000       8.10871000       0.15611452       0.32642957       0.17931524      -0.11382748      -0.06844143       0.05020624
P       -0.12891700       3.15619000       8.23584000      -0.22435311      -0.59870925      -0.14098845       0.51635789      -1.49806225      -0.88946445
S       -0.95052800       2.27891000       9.81776000       0.01366907       0.51168471       0.55265153      -1.20506093      -0.19786829       2.42302153
S       -3.15018000       7.11802000       6.79168000       0.32157455       0.42569958       0.23913949       2.02332455       0.22054558       2.25838949
S       -0.54586100       5.12310000       8.09061000      -0.05798905       0.15640098       0.37420811      -0.72208605       2.90973098       0.58411411
Li       9.88974000       2.75848000       4.60423000      -0.13154740       0.32147254      -0.19867216       0.01762460       0.65522854       0.05032784
S       10.33190000       1.68348000       0.89270500      -0.04293368      -0.71699983       0.49677150      -0.86405368      -1.82150983       2.22862150
S       10.21780000       0.43082900       4.40564000       0.08612306      -0.91932188       0.14091141      -1.20644694      -0.82094168      -2.06333859
Li       8.00556000       1.55405000       1.23607000       0.21481273      -0.46035775       0.61706281      -0.07576727      -0.20249575       0.39301781
Li       5.99041000       1.31372000       4.27076000       0.56699110       0.24427867      -0.32109067       0.49096660       0.48472067       0.36304633
P        7.10310000       4.35289000       3.21041000       0.03723924       0.59523936      -0.61993630      -0.77735076       1.91135936      -0.01932230
S        8.08183000       5.21577000       1.68136000       0.25839353       0.46051437      -0.71091340       1.55503353       1.11281637      -1.87171340
S        7.70888000       2.43809000       3.37314000       0.26466438      -0.36355065       0.24077725       1.31538438      -2.53787065       0.25442945
Li       5.91591000      -2.66601000       9.17159000      -0.70889739      -0.05411199      -0.62703166      -0.48641839       0.45762601      -0.45862066
Li       8.17660000       0.07784070       7.82767000       0.21528679      -0.00123828       0.15287939      -0.11724421       0.09574252       0.16178380
P        8.63417000      -2.28072000      10.50650000       0.31548243       0.33681525      -0.18502886       0.29577333       1.59638525       0.07844514
P        5.08537000       0.11737300       6.25484000       0.14083767       1.28268947       0.69472597       1.19265767       1.84421247       2.43494597
S        6.99576000      -0.38404500       5.79566000      -0.28398096      -0.21902664       0.05349287       1.78014904      -1.06264364      -1.26273713
S        4.26583000      -2.47929000      10.67480000       1.49310126       0.40831815      -0.00395065       2.59216126      -0.22471485      -0.46981365
S        5.05485000       2.40455000       6.49567000      -0.27235131      -0.48961387      -0.15671226      -1.76165131       0.42998113      -1.35259226
S        8.01965000      -3.20802000       8.83943000       0.33139156      -0.46323982      -0.66796954      -0.29322544      -1.77058982      -2.29872954
S        4.25317000      -0.87946900       7.81127000       0.23758990       0.36190205      -0.58773496      -0.96526010      -0.77581795       0.78557504
S        8.30791000      -0.23829800      10.30810000       0.42593838       0.53174874      -0.14198702       0.47884978       2.30904874      -0.19075022
S        8.15423000       2.59122000       7.98787000      -0.37959829      -0.23055260      -0.05840390       1.55037171      -0.67358960       0.12324310
Li       6.10434000       0.06732020      10.90180000       0.15162942      -0.25057658      -0.22137584      -0.00756858      -0.45812858      -0.39693684
Li       3.70016000       0.87676900      11.20460000      -0.17599866       0.14056466       0.14744367      -0.22214976      -0.11505234       0.31428067
Li       9.04322000       7.53018000       1.03924000      -0.38417129       0.13086749      -0.07752511      -0.50367529       0.34655249      -0.21987211
Li       5.90302000       8.67056000       3.35975000      -0.00356021      -0.95146947       0.05759905       0.29679779      -1.46436647      -0.02877645
Li       6.86642000      10.11570000       1.03251000       1.62893198      -0.03527585      -0.75524897       1.05125998      -0.49809485      -1.04888597
S        5.30602000       7.47319000       0.96065500      -0.62109038       0.57900026       0.55160649      -0.47542038      -0.16997574       0.83624249
P        8.06067000       7.33667000       5.13713000      -0.51346514      -0.89485916       0.42056562      -1.09577614      -1.59741216      -0.91600438
P        4.50957000       9.81511000       0.60969400      -0.74790199      -1.98077805       0.76982940       0.44752801      -3.21261805      -0.26680060
S        8.95216000       8.26923000       3.63514000       0.22974972       0.39705510      -0.23122222       1.23740972       1.66909510      -1.79959222
S        5.12686000       4.76574000       3.27387000       0.02595970      -0.67115730       0.57516066      -1.68155030      -0.73418650       0.69240466
S        8.08485000       5.10248000       4.89434000       0.13959840      -0.03122829       0.67511998       1.34312840      -0.88929229       1.73569998
S        6.14204000       7.76663000       5.56016000      -0.14198772       0.14847023       0.00325816      -2.22923772       1.01557923       1.13978816
S        5.38851000      10.51260000       2.35422000      -1.50355495       1.85949109       0.60186455      -1.13774495       3.12307109       2.48664455
S        8.99652000       9.99395000       0.60133100      -0.84179284      -0.04816324      -0.20871462      -1.64583684       1.01096676       0.34206338
Li       5.04911000       4.87947000      10.11640000       0.17830516      -0.30769946       0.21853356       0.34569516      -0.87986546       0.27881826
Li       7.18625000       7.22270000       8.14115000       0.09069574      -0.22801242       0.26676264       0.24840174      -0.25199612       0.03608364
Li       2.84372000       3.04515000       9.92760000      -0.07553664       0.34079700      -0.23523573      -0.26036064       0.44785300      -0.20450573
P        6.19717000       3.06430000       8.11139000      -0.02723333      -0.23514929       0.64895356       0.08483167      -1.30997929       0.22935356
S        5.22322000       2.23665000       9.84516000       0.47548743       0.61558989      -0.27091009      -0.08203057       0.08073789       1.04251991
S        2.93880000       7.08094000       6.86817000       0.41542042       0.40934355       0.33629204       1.62332042      -0.03989645       2.55423204
S        5.72283000       5.08334000       8.01562000       0.37979119      -0.32449340      -0.15487338      -0.66189881       1.84818660      -0.12623768
S        2.91079000       5.75414000      10.24930000      -0.45630228       0.39186006      -0.44514603       0.37638372       1.49920006      -2.37174603
Li       5.55575000       5.29402000       5.74457000      -0.14549104       0.22167391      -0.43841380       0.41075196      -0.03640609      -0.85688980
