84
Lattice="12.05819059 0.0668403 -2.78360419 -3.55507961 11.01188347 -3.68537032 0.06433022 0.05374041 12.41905109" Properties=species:S:1:pos:R:3:forces:R:3:delta_forces:R:3 delta_energy=-595946.269228566 stress="-0.01324998 0.00045939 0.00022718 0.00045939 -0.01189426 0.0001535 0.00022718 0.0001535 -0.01359528" pbc="T T T" virials="-21.95350460493736 0.7611498644120349 0.37640790221190296 0.7611498644120349 -19.70725176055528 0.2543296636566912 0.37640790221190296 0.2543296636566912 -22.52562208285694" energy=-596328.965028566
Li       2.10359000       7.38873000      -2.27989000      -0.00028305      -0.01261860       0.00210117       0.11451795       0.20160240       0.05754867 
Li       1.13000000       0.36027000       8.91553000       0.00460125      -0.00046950      -0.00634876      -0.16554675       0.27088850      -0.02095916 
Li       3.05826000       3.68133000       4.00146000      -0.00256916      -0.00485773      -0.00569465      -0.26844616       0.22184627       0.38197835 
Li       0.57609000       9.62109000       6.94302000       0.00010115      -0.00199712      -0.00575782       0.27002415      -0.09543292       0.26621118 
Li       3.54840000       2.07341000       7.07707000      -0.00644424      -0.00485301      -0.00828779      -0.15186224       0.20557899       0.25655421 
Li      -1.01005000       9.02564000       0.26480000       0.00644395       0.00485427       0.00830127       0.15186595      -0.20557973      -0.25654273 
Li       1.40834000      10.73878000      -1.57365000      -0.00458146       0.00045280       0.00632861       0.16556754      -0.27091120       0.02093971 
Li       3.71455000       4.31617000      -1.18194000      -0.00332782       0.00943700       0.00193680       0.17772418      -0.26939300       0.02669050 
Li       3.03970000       7.81638000       4.86240000       0.00651692       0.00715425      -0.00001177      -0.34158908      -0.41709075      -0.02855187 
Li      -1.17621000       6.78287000       8.52382000       0.00333972      -0.00942970      -0.00193825      -0.17771528       0.26939930      -0.02669555 
Li       0.43476000       3.71031000       9.62177000       0.00028039       0.01263970      -0.00210293      -0.11452161      -0.20157630      -0.05754543 
Li       1.96226000       1.47796000       0.39885000      -0.00011115       0.00197349       0.00576926      -0.27003615       0.09541399      -0.26619974 
Li      -0.51991000       7.41772000       3.34042000       0.00255682       0.00483069       0.00569086       0.26843082      -0.22187531      -0.38198714 
Li      -0.50135000       3.28267000       2.47947000      -0.00651380      -0.00717390       0.00003617       0.34159420       0.41707710       0.02857757 
Li       8.13268000       7.42215000      -3.67169000      -0.00027264      -0.01262421       0.00209985       0.11453036       0.20159479       0.05754645 
Li       7.15910000       0.39369000       7.52373000       0.00459140      -0.00047977      -0.00635091      -0.16555760       0.27088123      -0.02095721 
Li       9.08735000       3.71475000       2.60966000      -0.00256189      -0.00485445      -0.00570646      -0.26843789       0.22184955       0.38196854 
Li       6.60519000       9.65451000       5.55122000       0.00009717      -0.00199870      -0.00576261       0.27002117      -0.09543380       0.26621039 
Li       9.57749000       2.10683000       5.68527000      -0.00644259      -0.00486100      -0.00830278      -0.15186759       0.20557600       0.25653622 
Li       5.01904000       9.05906000      -1.12700000       0.00646666       0.00486224       0.00830785       0.15188666      -0.20556476      -0.25654315 
Li       7.43744000      10.77220000      -2.96545000      -0.00458996       0.00045748       0.00632866       0.16556104      -0.27090352       0.02093946 
Li       9.74365000       4.34959000      -2.57374000      -0.00335576       0.00943943       0.00190577       0.17769724      -0.26939157       0.02665907 
Li       9.06880000       7.84980000       3.47060000       0.00650020       0.00714939      -0.00000656      -0.34160280      -0.41710061      -0.02854506 
Li       4.85289000       6.81629000       7.13202000       0.00331225      -0.00942148      -0.00194847      -0.17773775       0.26941052      -0.02670307 
Li       6.46385000       3.74374000       8.22997000       0.00028090       0.01261587      -0.00209409      -0.11451810      -0.20160613      -0.05753979 
Li       7.99135000       1.51138000      -0.99295000      -0.00008966       0.00197918       0.00577543      -0.27001166       0.09542238      -0.26619557 
Li       5.50918000       7.45114000       1.94861000       0.00256772       0.00483383       0.00571038       0.26844172      -0.22187217      -0.38196362 
Li       5.52774000       3.31609000       1.08767000      -0.00651907      -0.00717165       0.00003032       0.34159293       0.41707335       0.02857092 
P       1.18975000       5.23094000       0.98445000       0.00612127       0.02775029       0.00932418      -0.41028273       0.93960529       0.60705318 
P       2.22987000       8.61830000       1.60282000      -0.01154644      -0.03657403      -0.00127763      -0.81316944      -1.28234403      -1.62740763 
P       4.62391000       1.90446000       9.87218000      -0.01919963      -0.00239259       0.02538261       0.23510437       0.74939541       0.73363061 
P      -2.08556000       9.19458000      -2.53030000       0.01911166       0.00239842      -0.02541295      -0.23518134      -0.74941558      -0.73365395 
P       1.34859000       5.86810000       6.35743000      -0.00602559      -0.02769507      -0.00935402       0.41031341      -0.93957007      -0.60710002 
P       0.30847000       2.48075000       5.73905000       0.01180950       0.03638927       0.00146003       0.81340750       1.28217927       1.62759003 
P       7.21885000       5.26436000      -0.40735000       0.00602763       0.02776334       0.00915659      -0.41031537       0.93961634       0.60686859 
P       8.25897000       8.65172000       0.21102000      -0.01179090      -0.03650827      -0.00124232      -0.81336790      -1.28226827      -1.62737232 
P      10.65300000       1.93788000       8.48038000      -0.01915214      -0.00236863       0.02531711       0.23512286       0.74942937       0.73357711 
P       3.94354000       9.22800000      -3.92210000       0.01902764       0.00250185      -0.02538497      -0.23526536      -0.74930215      -0.73360997 
P       7.37769000       5.90152000       4.96563000      -0.00608736      -0.02771364      -0.00940745       0.41028364      -0.93961664      -0.60713645 
P       6.33757000       2.51417000       4.34725000       0.01158228       0.03642226       0.00137284       0.81318928       1.28220226       1.62752284 
S       2.64174000       8.98890000      -0.33347000       0.05784931       0.07822826      -0.23762471       0.86076631       1.11097826      -1.13497171 
S      -0.72197000       5.65723000       1.54742000      -0.25310180       0.04538025       0.07103041      -1.99965180       0.42966525       0.21180141 
S       2.49874000       6.52386000       2.05177000       0.13514747      -0.05857450       0.13197520       1.40649747      -1.04144050       1.22871520 
S       2.08780000       1.77943000       5.16038000       0.25495070      -0.13889022      -0.04276605       2.06095070      -1.19299022      -1.19114605 
S       1.50689000       5.29566000      -1.00645000       0.05731078       0.00665642      -0.24119174       0.64837078       0.80126042      -2.02427174 
S       1.03146000       5.80339000       8.34833000      -0.05736069      -0.00668343       0.24118667      -0.64839869      -0.80128643       2.02427667 
S       0.45055000       9.31961000       2.18150000      -0.25511152       0.13897401       0.04277137      -2.06111152       1.19306401       1.19117137 
S      -2.27462000       9.07010000       4.27217000       0.15756252       0.09362791       0.17437477       1.61330252       0.18899381       1.76830477 
S      -1.10942000      10.74683000      -1.60880000       0.10883244       0.18960267       0.10961050       0.76226144       1.42207267       1.78252050 
S       0.60386000       1.62318000      10.93712000       0.26905703      -0.05454137      -0.02088799       1.76213703      -0.51354737      -0.29961599 
S       1.83117000       3.49328000       1.84530000       0.06422341      -0.23375388       0.10814715       0.97142341      -2.27352388       0.30494515 
S       4.81296000       2.02894000       3.06971000      -0.15748875      -0.09358250      -0.17434188      -1.61323875      -0.18895020      -1.76826188 
S       0.03961000       4.57518000       5.29010000      -0.13521835       0.05865310      -0.13199037      -1.40653835       1.04153210      -1.22873037 
S       4.19206000       1.96677000      -0.53283000      -0.03476580       0.00417006       0.25507184      -0.90635280      -1.05194994       1.66677184 
S       3.64777000       0.35221000       8.95067000      -0.10881135      -0.18955152      -0.10956041      -0.76223735      -1.42200152      -1.78248041 
S       1.93448000       9.47586000      -3.59524000      -0.26891199       0.05452550       0.02089509      -1.76198199       0.51352950       0.29961309 
S      -0.10339000       2.11015000       7.67535000      -0.05787463      -0.07819481       0.23750122      -0.86077463      -1.11094481       1.13485622 
S       4.01631000       3.63803000       8.95398000      -0.08110567       0.23608385      -0.11338148      -0.41966667       1.93391385      -0.36201548 
S       3.26031000       5.44181000       5.79446000       0.25312928      -0.04536718      -0.07101888       1.99967928      -0.42964418      -0.21178488 
S       0.70718000       7.60576000       5.49657000      -0.06424673       0.23375565      -0.10811324      -0.97141973       2.27352565      -0.30491124 
S      -1.65372000       9.13228000       7.87471000       0.03480540      -0.00420396      -0.25511355       0.90638340       1.05193604      -1.66681355 
S      -1.47797000       7.46101000      -1.61210000       0.08113855      -0.23611195       0.11339684       0.41968755      -1.93394195       0.36203084 
S       8.67083000       9.02232000      -1.72527000       0.05790633       0.07822484      -0.23764547       0.86080933       1.11097484      -1.13500347 
S       5.30713000       5.69065000       0.15562000      -0.25312966       0.04537121       0.07101348      -1.99967966       0.42965421       0.21178648 
S       8.52783000       6.55728000       0.65997000       0.13523755      -0.05857003       0.13200237       1.40655755      -1.04143003       1.22875237 
S       8.11689000       1.81285000       3.76857000       0.25505873      -0.13893005      -0.04275843       2.06105873      -1.19303005      -1.19115843 
S       7.53598000       5.32908000      -2.39826000       0.05733957       0.00664332      -0.24103459       0.64837257       0.80125332      -2.02410459 
S       7.06055000       5.83681000       6.95653000      -0.05730516      -0.00668489       0.24115656      -0.64836216      -0.80128189       2.02424656 
S       6.47964000       9.35303000       0.78970000      -0.25495661       0.13892379       0.04272845      -2.06095661       1.19300379       1.19111845 
S       3.75448000       9.10352000       2.88036000       0.15751103       0.09362656       0.17438845       1.61327103       0.18899126       1.76829845 
S       4.91968000      10.78026000      -3.00060000       0.10876640       0.18947630       0.10957068       0.76219240       1.42194630       1.78248068 
S       6.63296000       1.65660000       9.54532000       0.26904189      -0.05451957      -0.02091412       1.76212189      -0.51352657      -0.29964012 
S       7.86026000       3.52670000       0.45350000       0.06426576      -0.23378682       0.10815236       0.97144376      -2.27356682       0.30495036 
S      10.84206000       2.06236000       1.67791000      -0.15758866      -0.09360722      -0.17443474      -1.61333866      -0.18898272      -1.76836474 
S       6.06870000       4.60860000       3.89830000      -0.13513991       0.05865772      -0.13194737      -1.40647991       1.04154872      -1.22869737 
S      10.22116000       2.00019000      -1.92463000      -0.03480337       0.00417137       0.25508317      -0.90638337      -1.05195863       1.66679317 
S       9.67686000       0.38563000       7.55887000      -0.10880306      -0.18955046      -0.10954877      -0.76222406      -1.42201046      -1.78247877 
S       7.96358000       9.50928000      -4.98704000      -0.26906568       0.05454515       0.02090030      -1.76214568       0.51354915       0.29962630 
S       5.92571000       2.14357000       6.28355000      -0.05786085      -0.07819747       0.23749989      -0.86076485      -1.11094747       1.13485189 
S      10.04541000       3.67145000       7.56217000      -0.08112460       0.23607530      -0.11331904      -0.41966460       1.93389530      -0.36195904 
S       9.28941000       5.47523000       4.40265000       0.25308117      -0.04536948      -0.07097489       1.99963117      -0.42963548      -0.21175189 
S       6.73628000       7.63918000       4.10477000      -0.06424758       0.23375023      -0.10812215      -0.97142658       2.27353023      -0.30493415 
S       4.37538000       9.16570000       6.48291000       0.03479962      -0.00420775      -0.25510763       0.90637662       1.05192225      -1.66681763 
S       4.55113000       7.49443000      -3.00390000       0.08113532      -0.23608639       0.11339820       0.41968432      -1.93392639       0.36203020 
84
Lattice="12.05819059 0.0668403 -2.78360419 -3.55507961 11.01188347 -3.68537032 0.06433022 0.05374041 12.41905109" Properties=species:S:1:pos:R:3:forces:R:3:delta_forces:R:3 delta_energy=-595945.439402906 stress="-0.0086211 0.00137315 0.0019168 0.00137315 -0.01010789 -0.00283371 0.0019168 -0.00283371 -0.01049258" pbc="T T T" virials="-14.2840486211772 2.275132101955606 3.1758898977012744 2.275132101955606 -16.74746751777741 -4.69509127817982 3.1758898977012744 -4.69509127817982 -17.384849135445762" energy=-596324.710702906
Li       2.57352993       7.43511898      -2.28918541      -0.06653935      -0.13923909       0.00832976       0.01488625       0.03461491       0.04931366 
Li      -2.39943914      10.94473699       6.05403944       0.20292628      -0.30465852      -0.31253193      -0.12556572      -0.18886852      -0.10473593 
Li       3.54837065       3.16056057       4.45290612      -0.15817580       0.06094078      -0.01675991      -0.05277480       0.37131978       0.36672809 
Li       1.52370001      10.01849730       6.44562903      -0.26156313      -0.01748571      -0.04478071       0.14216187       0.03995159       0.36588229 
Li       2.50139598       2.37505849       7.48893949       0.48519123      -0.31124125       0.35296027       0.01484623       0.23957775       0.43067897 
Li      -0.88224548       8.61921044      -0.04126906       0.01055453       0.23650797       0.39769955       0.15084953      -0.09764103       0.15503555 
Li       2.17279954      10.62466275      -1.70921376      -0.04234508       0.30232732       0.33395413       0.22747292       0.11088932       0.23878953 
Li       3.85224457       4.42181137      -1.27522199       0.11810481       0.12954026       0.45789905       0.32991781      -0.29020074       0.38089405 
Li       2.93296711       7.82884061       4.80586146      -0.22655999      -0.32889227      -0.06882380      -0.39493199      -0.76734727      -0.07395834 
Li      -0.96637552       6.77013173       8.55156447      -0.31331300      -0.12533420      -0.03167259      -0.45427900       0.07755480       0.00052921 
Li       0.66192566       3.52341782       9.66712961      -0.19997751       0.40377941      -0.11820227      -0.18036541       0.27447141      -0.23136627 
Li       1.87389797       1.50380769       0.82879933      -0.07238112       0.04047171      -0.22772933      -0.38212012       0.24937171      -0.54057633 
Li      -0.42599198       7.64731254       3.20134883       0.18812151       0.15145754       0.04432075       0.48473551      -0.13203346      -0.46761325 
Li      -0.46027070       3.73252985       3.19607542      -0.04658189       0.00433936       0.07403453       0.27038611       0.33119536       0.20369953 
Li       7.72723388       7.53638112      -3.78570155       0.17225784      -0.17932658       0.08360429       0.28380884      -0.01843058       0.15314619 
Li       7.39420042       0.41472366       7.89990839      -0.05109329      -0.08035169      -0.41221969      -0.01517479       0.16738631      -0.13739669 
Li       9.10120449       3.69852829       2.77662416      -0.00062316       0.01186930      -0.24677013      -0.38256616       0.30712130       0.07532387 
Li       6.54940047       9.63850243       5.33343228      -0.27497126       0.01276439      -0.37674563      -0.09908226      -0.09122761      -0.06213863 
Li       9.70705137       1.84330165       5.62580482      -0.15581252       0.14106109      -0.46373830      -0.20325412       0.42423309      -0.14165530 
Li       5.82212366       8.71696350      -1.42722718       0.16293845       0.26465471       0.44052905       0.44295745      -0.11539229       0.44146883 
Li      10.58671417       0.27301872      -0.28108866       0.23337326      -0.02053302       0.21076135       0.37351126      -0.09062822      -0.11812165 
Li       9.90810481       4.54284100      -2.77945558      -0.03706225      -0.05258902      -0.03805715       0.19339375      -0.46319402      -0.00772995 
Li       9.08019657       7.78454140       3.48522479       0.08443280       0.10410519      -0.04437222      -0.43526220      -0.20710781      -0.06216792 
Li       4.89502134       7.22558615       6.63749612       0.10296930      -0.14395072       0.26300470      -0.01530270       0.06784328       0.18962340 
Li       6.09258119       3.59274027       7.93801405       0.19727005       0.09048525      -0.31623643       0.12262435      -0.05923675      -0.38907123 
Li       7.81629319       1.93161674      -1.19474793      -0.00720760       0.01944639       0.20821835      -0.20749560       0.17351639      -0.03769665 
Li       5.41428915       7.44538823       1.78981845      -0.00430185       0.15672853       0.01616971       0.11981115      -0.18049947      -0.37079629 
Li       5.27510810       3.41474124       1.22421882       0.35303072       0.42092542      -0.53664280       0.61160272       0.90609542      -0.39830280 
P       1.32350717       5.29949091       1.31779230      -0.54617454      -1.07366069      -0.56341823      -0.66788954      -0.03192069       0.10316777 
P       2.47130690       8.68041050       1.52959630      -1.31480899       0.86565472       0.52777140      -2.12391199      -1.38664528      -1.46812860 
P       4.34365501       2.10457078       9.92691168       0.65438969      -1.06529388      -0.92970407       0.56080549       0.02025612       0.00929693 
P      -2.11594691       9.04410308      -2.70844470      -0.14058172       0.09467714       0.75465941      -0.79753872      -0.46773186      -0.22790459 
P       1.38794525       5.74866663       6.58156680       0.18667973       0.88822599      -0.60220031       0.81370673      -0.40370401      -1.60855031 
P       0.33723409       2.11658661       5.99271073      -0.43486625      -0.12761436      -0.71514549       0.52106175       1.35071564       1.25678451 
P       7.34270354       5.35623353      -0.38943912      -0.20140459      -0.40440220      -0.95692228      -0.47331559       0.53889080       0.00576572 
P       8.31861375       8.73185212       0.32904473      -0.45434854       0.55639606       0.28511086      -1.08428154      -1.12219394      -1.16191914 
P      10.58716211       1.97947441       8.42014471       0.22577832      -0.35055021      -0.39792446       0.23839762       0.23148979       0.61998554 
P       3.84733849       9.58244781      -4.10670709       0.00342944      -0.34787881       0.13851181      -0.20596956      -0.42504911      -0.82203519 
P       7.27310326       5.84131148       4.78755082       1.21812626       0.96580306      -0.47274434       1.40599526       0.25255606      -1.61105434 
P       6.37140695       2.40303527       4.19134339      -0.44770428      -1.39531998       0.18992256       0.18138672       0.91051002       1.86831256 
S       3.25029710       8.88574498      -0.28766657       0.29020076      -0.22888409      -0.62495049       1.56742076       0.74148491      -1.24853149 
S      -0.68278903       5.70688595       1.65733112       0.00663606       0.11117215      -0.00638686      -1.67224394       0.54277715      -0.08875826 
S       2.42354350       6.69748293       2.40416605       0.73269929      -0.16526402       0.12909471       1.46420929      -0.80969002       1.70649471 
S       2.11161475       1.40375245       5.35924366      -0.22496556       0.38017812       0.03329532       1.82493444      -1.05356188      -1.23439468 
S       1.79415395       5.34250293      -0.66108320      -0.39685072       0.16906519      -0.00750823       0.28120928       0.90843419      -1.75262823 
S       1.16990333       5.87036894       8.59087001       0.13278087      -0.28531307       0.45891399      -0.38398313      -0.63582707       2.25163399 
S       0.67714517       9.61160740       1.75706313      -0.07861063      -0.79310605      -0.07332885      -1.77866063       1.00876395       0.82319215 
S      -2.09936128       9.04301576       4.38106544      -0.65783394       0.13545764      -0.46048828       0.90459606       0.25788664       1.13820172 
S      -1.15061754      10.49474552      -1.56779155      -0.15805123      -0.25907206      -0.49068260       0.60484077       0.71398494       1.45981740 
S       0.58544942       1.68239585      11.11467292       0.30527280       0.37645964       0.65312068       1.68057280      -0.16050036       0.60729958 
S       1.73892245       3.50655060       2.30040297       0.23266236       0.50805723      -0.10245901       0.82609036      -1.61640277      -0.05774301 
S       4.88785907       1.78753445       2.76416519       0.67921895       0.27076570       0.87315578      -0.67689105      -0.25118830      -0.71504422 
S      -0.06909366       4.29102004       5.92054492       0.43628354       0.37999378      -0.82942817      -1.28234646       1.13174678      -1.39080917 
S       4.01938077       2.06945084      -0.50338940      -0.15338469       0.14300975       0.53203733      -0.95879569      -1.19475025       1.99577733 
S       3.46193528       0.52686518       8.92400570      -0.18109710       0.08465708       0.27679787      -0.55942810      -1.28752292      -1.65899213 
S       1.86447924       9.40540347      -3.66256016      -0.17618906       0.07741673      -0.12396990      -2.07550906       0.12777143      -0.11568796 
S       0.01701471       1.63254839       7.94277328       0.35982453       0.14829844      -0.44292764      -0.45982347      -1.23381156       0.25348936 
S       3.89858406       3.84810497       8.94560932      -0.53946842       0.12452605      -0.21715276      -0.42750442       1.89450605      -0.41814976 
S       3.32669859       5.39152345       5.96375350      -0.37307017      -0.12948204      -0.16628463       1.28804983      -0.42920704      -0.11536713 
S       0.68462324       7.49765685       5.64779307       0.04444341      -0.61902751       0.10218931      -1.08098659       1.39195249       0.11441001 
S      -1.36470472       8.99159887       7.75387696      -0.53751640       0.14399017       0.63696850       1.01096360       1.02369017      -0.74017150 
S      -1.81344971       7.19374017      -1.66304600      -0.09078657       0.69915094      -0.75359227      -0.12745687      -0.92863906      -0.56741727 
S       8.43564524       9.11774448      -1.61328611       0.66056196       0.06190113      -1.01415605       1.35873496       1.56006113      -2.08451605 
S       5.39540959       5.86637915      -0.09363168      -0.48274878       0.18752273       0.30412487      -2.06627878       0.86263473       0.05083087 
S       8.57279569       6.67929011       0.74324444       0.36706222      -0.98464628       0.18236632       1.59739222      -1.85746428       1.39575632 
S       8.22125625       1.73196706       3.73188992      -0.30540570       0.15957311      -0.04097889       1.57832430      -1.06677689      -1.12417889 
S       7.61683788       5.23449573      -2.44456449       0.20546916       0.34528431       0.53929084       0.71810116       1.06332631      -1.34397916 
S       6.88797746       5.84751207       6.70633468      -0.36929659      -0.37635700       1.62840136      -1.03949359      -1.15890000       3.57779136 
S       6.48443688       9.41824984       0.85741263       0.23948331      -0.03085578       0.34977261      -1.63854669       1.22545422       1.31462161 
S       3.77339739       9.20470835       3.00733175       0.34813808       0.09726316       0.05114409       1.48923808       0.44616316       1.67773409 
S       8.25947290       0.10030248       0.57966937      -0.03940491       0.63035141      -0.11691709       0.62844409       1.53127041       2.00190291 
S       6.35733602       1.77876740       9.51059321       0.23328470       0.14609446       0.27236541       1.53089470      -0.16330254      -0.22036759 
S       7.76802403       3.57390832       0.53513510       0.16375572       0.18689121       0.24060564       0.83531772      -1.99125879       0.36686564 
S      10.81327890       1.94551730       1.86014556       0.38111608      -0.04252245       0.23329168      -1.12115392      -0.23992045      -1.29899832 
S       6.05729125       4.49144875       3.76511624      -0.60797849      -0.16742450      -0.77424156      -1.74452849       0.63576750      -1.78361156 
S      10.07257730       1.95611000      -2.00047143      -0.15929063       0.67650941      -0.02650444      -0.92116963      -0.16843459       1.44894556 
S       9.85266232       0.39270619       7.35190833      -0.47520030      -1.14128590       0.65543067      -0.84259930      -2.19314590      -1.33863933 
S       7.85356488       9.45903119      -5.29830005       0.50621094      -0.11469520       0.21427494      -0.78199906       0.13619880       0.55731294 
S       5.66058058       1.77911939       5.97895140       0.19756386       0.75138873       0.09452724      -1.11398614      -0.89930127       0.60085624 
S       9.93664323       3.53769979       7.23692939       0.32028558       0.72801834       1.16729469      -0.04030242       2.42459834       0.63003269 
S       9.29290859       5.55377720       4.37223609      -0.60350294      -0.40244622      -0.05148906       1.28015706      -0.81719522       0.09860794 
S       6.63329478       7.60124129       3.89659623       0.03634936      -0.28216154       0.11274858      -0.74762864       1.73446846      -0.03895042 
S       4.00701798       9.54726698       6.22435934       0.53651365      -0.01637499      -0.22490811       1.10846465       0.87426001      -1.78044811 
S       4.85606852       7.93899648      -3.42066599       0.05365912      -1.13791731      -0.08697702       0.76009612      -2.62088731       0.17431898 
84
Lattice="12.05819059 0.0668403 -2.78360419 -3.55507961 11.01188347 -3.68537032 0.06433022 0.05374041 12.41905109" Properties=species:S:1:pos:R:3:forces:R:3:delta_forces:R:3 delta_energy=-595946.049301362 stress="-0.00383907 -0.00255584 0.00052037 -0.00255584 -0.00979172 0.00196468 0.00052037 0.00196468 -0.00759838" pbc="T T T" virials="-6.360842878530901 -4.234696596484154 0.8621858441500482 -4.234696596484154 -16.223614685475546 3.255220870312886 0.8621858441500482 3.255220870312886 -12.589533744206705" energy=-596325.266461362
Li       2.56193106       7.47905734      -2.51114809      -0.16490898      -0.21893577       0.17290842       0.10443202       0.03658323       0.08199512 
Li      -2.46201466      10.88446097       6.53863559       0.19244627      -0.24860153      -0.40083547      -0.17320973      -0.19301143      -0.08933747 
Li       3.35007555       3.35830131       4.30084174       0.31668946       0.21868712       0.12467197       0.24400606       0.46528712       0.47541397 
Li       1.59501339       9.41896288       6.56306044      -0.24428295       0.27584036      -0.43652429       0.32554005       0.04315636      -0.19663429 
Li       2.82557946       1.64993117       7.59645533      -0.23178723       0.14389203      -0.38326585      -0.39372823       0.56285403      -0.14661685 
Li      -1.25083737       8.24419964       0.16395777       0.22850724       0.26729415       0.22060788       0.20874334       0.02521815       0.09745088 
Li       2.80735608      10.75821322      -1.62677520      -0.20427772       0.10080121       0.03535384      -0.01971872      -0.06456779       0.05421514 
Li       3.47843489       4.52179057      -1.15745002       0.18765860      -0.23308868      -0.05726474       0.31681660      -0.44314768       0.03372736 
Li       2.77146246       7.64943617       4.49032699       0.06966900      -0.17010307       0.08973058      -0.26276400      -0.52978307       0.00409328 
Li      -1.36918354       6.59250500       8.40447054       0.13150424       0.03098614      -0.07291951      -0.02256576       0.21152114      -0.19297251 
Li       0.45545912       3.82079041       9.98339159       0.06469769       0.04795114      -0.33435017      -0.04474731      -0.23070586      -0.42339857 
Li       1.92959926       1.64180327       0.98147281       0.07099396      -0.28482870      -0.32996783      -0.39901804      -0.05084970      -0.62557783 
Li      -0.24064644       7.94672217       3.39679202       0.40797483      -0.17670578      -0.35559956       0.89247983      -0.45024878      -0.74231356 