84
Lattice="12.375 0.0 0.0 -2.5754428754180116 11.867764321701818 0.0 -2.730270011857891 -4.41833150365321 11.2807594330424" Properties=species:S:1:pos:R:3:forces:R:3 energy=-20151.01351097756 pbc="T T T"
Li       2.10359000       7.38873000      -2.27989000      -0.04235944      -0.02371997       0.01560094
Li       1.13000000       0.36027000       8.91553000      -0.03188322      -0.02328031      -0.00237827
Li       3.05826000       3.68133000       4.00146000      -0.03185031      -0.00512678      -0.01686541
Li       0.57609000       9.62109000       6.94302000       0.03609777      -0.00429580       0.02537782
Li       3.54840000       2.07341000       7.07707000      -0.03974360      -0.00525945      -0.07422826
Li      -1.01005000       9.02564000       0.26480000       0.03974206       0.00526099       0.07424215
Li       1.40834000      10.73878000      -1.57365000       0.03190379       0.02326386       0.00235564
Li       3.71455000       4.31617000      -1.18194000      -0.02635844       0.04745948      -0.01706287
Li       3.03970000       7.81638000       4.86240000       0.00780484       0.03608646      -0.00045097
Li      -1.17621000       6.78287000       8.52382000       0.02637078      -0.04745228       0.01706081
Li       0.43476000       3.71031000       9.62177000       0.04235481       0.02374157      -0.01560197
Li       1.96226000       1.47796000       0.39885000      -0.03610857       0.00427163      -0.02536650
Li      -0.51991000       7.41772000       3.34042000       0.03183797       0.00509901       0.01686232
Li      -0.50135000       3.28267000       2.47947000      -0.00780227      -0.03610754       0.00047514
Li       8.13268000       7.42215000      -3.67169000      -0.04234761      -0.02372665       0.01559940
Li       7.15910000       0.39369000       7.52373000      -0.03189248      -0.02329111      -0.00238033
Li       9.08735000       3.71475000       2.60966000      -0.03184208      -0.00512318      -0.01687775
Li       6.60519000       9.65451000       5.55122000       0.03609315      -0.00429786       0.02537267
Li       9.57749000       2.10683000       5.68527000      -0.03973948      -0.00526768      -0.07424317
Li       5.01904000       9.05906000      -1.12700000       0.03976674       0.00526922       0.07424986
Li       7.43744000      10.77220000      -2.96545000       0.03189402       0.02326900       0.00235616
Li       9.74365000       4.34959000      -2.57374000      -0.02638775       0.04746308      -0.01709424
Li       9.06880000       7.84980000       3.47060000       0.00778736       0.03608183      -0.00044583
Li       4.85289000       6.81629000       7.13202000       0.02634249      -0.04744354       0.01704950
Li       6.46385000       3.74374000       8.22997000       0.04235687       0.02371791      -0.01559374
Li       7.99135000       1.51138000      -0.99295000      -0.03608543       0.00427677      -0.02536033
Li       5.50918000       7.45114000       1.94861000       0.03184928       0.00510210       0.01688135
Li       5.52774000       3.31609000       1.08767000      -0.00780741      -0.03610497       0.00046948
P        1.18975000       5.23094000       0.98445000       0.03092780       0.06125705      -0.05624905
P        2.22987000       8.61830000       1.60282000      -0.06528134       0.00481259      -0.05977763
P        4.62391000       1.90446000       9.87218000      -0.04501590      -0.03933788       0.08430339
P       -2.08556000       9.19458000      -2.53030000       0.04491974       0.03934456      -0.08433527
P        1.34859000       5.86810000       6.35743000      -0.03082701      -0.06119997       0.05621768
P        0.30847000       2.48075000       5.73905000       0.06554410      -0.00500028       0.05996070
P        7.21885000       5.26436000      -0.40735000       0.03082907       0.06127093      -0.05641463
P        8.25897000       8.65172000       0.21102000      -0.06552611       0.00487944      -0.05974061
P       10.65300000       1.93788000       8.48038000      -0.04495985      -0.03931371       0.08423602
P        3.94354000       9.22800000      -3.92210000       0.04484004       0.03944792      -0.08431161
P        7.37769000       5.90152000       4.96563000      -0.03089232      -0.06121591       0.05616163
P        6.33757000       2.51417000       4.34725000       0.06531888      -0.00496634       0.05987328
S        2.64174000       8.98890000      -0.33347000       0.05778092       0.06666048      -0.14587051
S       -0.72197000       5.65723000       1.54742000      -0.21685661       0.04065531       0.05008509
S        2.49874000       6.52386000       2.05177000       0.09555094      -0.10761712       0.11228470
S        2.08780000       1.77943000       5.16038000       0.18410384      -0.14847195      -0.03345005
S        1.50689000       5.29566000      -1.00645000       0.07408788      -0.03426561      -0.14933533
S        1.03146000       5.80339000       8.34833000      -0.07413930       0.03423578       0.14932761
S        0.45055000       9.31961000       2.18150000      -0.18426428       0.14855731       0.03345211
S       -2.27462000       9.07010000       4.27217000       0.11964989       0.07126327       0.15712783
S       -1.10942000      10.74683000      -1.60880000       0.05115415       0.15322335       0.10651669
S        0.60386000       1.62318000      10.93712000       0.24999916      -0.01963243       0.00709624
S        1.83117000       3.49328000       1.84530000       0.01459821      -0.22256909       0.08785974
S        4.81296000       2.02894000       3.06971000      -0.11957944      -0.07121750      -0.15709903
S        0.03961000       4.57518000       5.29010000      -0.09562498       0.10769477      -0.11229859
S        4.19206000       1.96677000      -0.53283000      -0.01654762       0.00566825       0.21971208
S        3.64777000       0.35221000       8.95067000      -0.05113461      -0.15317296      -0.10646424
S        1.93448000       9.47586000      -3.59524000      -0.24985826       0.01961752      -0.00708647
S       -0.10339000       2.11015000       7.67535000      -0.05781074      -0.06662602       0.14574607
S        4.01631000       3.63803000       8.95398000      -0.06901149       0.20979585      -0.07360451
S        3.26031000       5.44181000       5.79446000       0.21688541      -0.04064194      -0.05007275
S        0.70718000       7.60576000       5.49657000      -0.01462443       0.22257269      -0.08782323
S       -1.65372000       9.13228000       7.87471000       0.01658876      -0.00570271      -0.21975322
S       -1.47797000       7.46101000      -1.61210000       0.06904492      -0.20982259       0.07361994
S        8.67083000       9.02232000      -1.72527000       0.05784159       0.06665636      -0.14589005
S        5.30713000       5.69065000       0.15562000      -0.21688541       0.04064554       0.05006709
S        8.52783000       6.55728000       0.65997000       0.09564349      -0.10761507       0.11231041
S        8.11689000       1.81285000       3.76857000       0.18421183      -0.14851103      -0.03343925
S        7.53598000       5.32908000      -2.39826000       0.07411976      -0.03427898      -0.14917643
S        7.06055000       5.83681000       6.95653000      -0.07408222       0.03423527       0.14929882
S        6.47964000       9.35303000       0.78970000      -0.18410950       0.14850743       0.03340994
S        3.75448000       9.10352000       2.88036000       0.11960103       0.07126327       0.15714685
S        4.91968000      10.78026000      -3.00060000       0.05108885       0.15309479       0.10647710
S        6.63296000       1.65660000       9.54532000       0.24998990      -0.01961135       0.00707002
S        7.86026000       3.52670000       0.45350000       0.01464295      -0.22260200       0.08786385
S       10.84206000       2.06236000       1.67791000      -0.11967457      -0.07124064      -0.15718799
S        6.06870000       4.60860000       3.89830000      -0.09554476       0.10769837      -0.11225642
S       10.22116000       2.00019000      -1.92463000      -0.01658721       0.00566928       0.21972236
S        9.67686000       0.38563000       7.55887000      -0.05112536      -0.15317193      -0.10645241
S        7.96358000       9.50928000      -4.98704000      -0.25000636       0.01963603      -0.00708287
S        5.92571000       2.14357000       6.28355000      -0.05779531      -0.06662860       0.14574607
S       10.04541000       3.67145000       7.56217000      -0.06903155       0.20978711      -0.07354024
S        9.28941000       5.47523000       4.40265000       0.21683758      -0.04064451      -0.05002698
S        6.73628000       7.63918000       4.10477000      -0.01462495       0.22256652      -0.08783248
S        4.37538000       9.16570000       6.48291000       0.01658362      -0.00570682      -0.21974807
S        4.55113000       7.49443000      -3.00390000       0.06904286      -0.20979739       0.07362200
84
Lattice="12.375 0.0 0.0 -2.5754428754180116 11.867764321701818 0.0 -2.730270011857891 -4.41833150365321 11.2807594330424" Properties=species:S:1:pos:R:3:forces:R:3 energy=-20146.45178839677 pbc="T T T"
Li       2.57353000       7.43511900      -2.28918500      -0.08793790      -0.18228761       0.00235616
Li      -2.39943900      10.94473700       6.05403900       0.19503669      -0.29751366      -0.29919156
Li       3.54837100       3.16056100       4.45290600      -0.24584528       0.08021688      -0.02269050
Li       1.52370000      10.01849700       6.44562900      -0.30216427      -0.02021093      -0.04165598
Li       2.50139600       2.37505800       7.48893900       0.54379809      -0.34180605       0.34616150
Li      -0.88224500       8.61921000      -0.04126900       0.05497996       0.21816067       0.41545273
Li       2.17280000      10.62466300      -1.70921400      -0.08287231       0.36815678       0.36133255
Li       3.85224500       4.42181100      -1.27522200       0.10831132       0.17218626       0.45934043
Li       2.93296700       7.82884100       4.80586100      -0.23064029      -0.32887135      -0.07177543
Li      -0.96637600       6.77013200       8.55156400      -0.27643421      -0.17545311      -0.00088549
Li       0.66192600       3.52341800       9.66713000      -0.20065043       0.41777804      -0.11534534
Li       1.87389800       1.50380800       0.82879900      -0.12430615       0.05978535      -0.26090321
Li      -0.42599200       7.64731300       3.20134900       0.17603983       0.15614207       0.07724160
Li      -0.46027100       3.73253000       3.19607500      -0.05827560       0.01487589       0.07050119
Li       7.72723400       7.53638100      -3.78570200       0.18933089      -0.19843671       0.06091972
Li       7.39420000       0.41472400       7.89990800      -0.07858011      -0.06181189      -0.43634757
Li       9.10120400       3.69852800       2.77662400      -0.02845646       0.01218446      -0.26265670
Li       6.54940000       9.63850200       5.33343200      -0.22481469      -0.00222040      -0.35477161
Li       9.70705100       1.84330200       5.62580500      -0.19028837       0.12393489      -0.51606463
Li       5.82212400       8.71696400      -1.42722700       0.17480519       0.28234672       0.46132018
Li      10.58671400       0.27301900      -0.28108900       0.32044739      -0.06959051       0.20278136
Li       9.90810500       4.54284100      -2.77945600      -0.04129089      -0.01558397      -0.01328335
Li       9.08019700       7.78454100       3.48522500       0.10751736       0.11174014      -0.03508682
Li       4.89502100       7.22558600       6.63749600       0.11435238      -0.18719894       0.30860180
Li       6.09258100       3.59274000       7.93801400       0.23205389       0.11095287      -0.34126406
Li       7.81629300       1.93161700      -1.19474800      -0.07131520       0.03300165       0.18186647
Li       5.41428900       7.44538800       1.78981800       0.04863344       0.13710973       0.05059622
Li       5.27510800       3.41474100       1.22421900       0.35108619       0.38931850      -0.53938967
P        1.32350700       5.29949100       1.31779200      -0.48467454      -1.09652048      -0.65011115
P        2.47130700       8.68041100       1.52959600      -1.42424511       0.96724438       0.48991342
P        4.34365500       2.10457100       9.92691200       0.64494272      -1.14932785      -0.88122504
P       -2.11594700       9.04410300      -2.70844500      -0.13604838       0.20312023       0.70764009
P        1.38794500       5.74866700       6.58156700       0.21836431       0.92466280      -0.57778139
P        0.33723400       2.11658700       5.99271100      -0.39227372      -0.20198124      -0.71356135
P        7.34270400       5.35623400      -0.38943900      -0.18794044      -0.39983585      -1.00930249
P        8.31861400       8.73185200       0.32904500      -0.53213762       0.60531173       0.18682458
P       10.58716200       1.97947400       8.42014500       0.18476204      -0.42033783      -0.35857530
P        3.84733800       9.58244800      -4.10670700       0.03030199      -0.32049675       0.18137590
P        7.27310300       5.84131100       4.78755100       1.20710825       0.97134735      -0.38144218
P        6.37140700       2.40303500       4.19134300      -0.36196042      -1.47753380       0.33415959
S        3.25029700       8.88574500      -0.28766700       0.26930454      -0.22695076      -0.55848217
S       -0.68278900       5.70688600       1.65733100       0.04243092       0.10235767      -0.00622567
S        2.42354400       6.69748300       2.40416600       0.74253716      -0.26086361       0.09338298
S        2.11161500       1.40375200       5.35924400      -0.31517200       0.41511746       0.08526447
S        1.79415400       5.34250300      -0.66108300      -0.42629199       0.13257174       0.06703946
S        1.16990300       5.87036900       8.59087000       0.09028223      -0.28621109       0.38675511
S        0.67714500       9.61160700       1.75706300      -0.00202243      -0.81984047      -0.06307533
S       -2.09936100       9.04301600       4.38106500      -0.69384973       0.13978574      -0.50620650
S       -1.15061800      10.49474600      -1.56779200      -0.20180383      -0.32200753      -0.51628728
S        0.58544900       1.68239600      11.11467300       0.29224753       0.39740770       0.64250274
S        1.73892200       3.50655100       2.30040300       0.20664316       0.54905085      -0.12221122
S        4.88785900       1.78753400       2.76416500       0.71620958       0.30304205       0.87607718
S       -0.06909400       4.29102000       5.92054500       0.49182787       0.43233408      -0.83521875
S        4.01938100       2.06945100      -0.50338900      -0.11536283       0.13369222       0.43597888
S        3.46193500       0.52686500       8.92400600      -0.15693859       0.15229364       0.26976169
S        1.86447900       9.40540300      -3.66256000      -0.07926403       0.08925430      -0.13162506
S        0.01701500       1.63254800       7.94277300       0.37460202       0.13512073      -0.59128071
S        3.89858400       3.84810500       8.94560900      -0.51562240       0.07959313      -0.16074280
S        3.32669900       5.39152300       5.96375400      -0.43056876      -0.14338014      -0.14095456
S        0.68462300       7.49765700       5.64779300       0.07979367      -0.63815963       0.11566005
S       -1.36470500       8.99159900       7.75387700      -0.55533411       0.11577780       0.74032036
S       -1.81345000       7.19374000      -1.66304600      -0.09028069       0.76203332      -0.80181600
S        8.43564500       9.11774400      -1.61328600       0.70509059       0.08105403      -0.91904288
S        5.39541000       5.86637900      -0.09363200      -0.46177681       0.19558022       0.30171947
S        8.57279600       6.67929000       0.74324400       0.33158489      -1.04780681       0.16543660
S        8.22125600       1.73196700       3.73189000      -0.36863552       0.16408986      -0.04206068
S        7.61683800       5.23449600      -2.44456400       0.21166093       0.34745374       0.61506495
S        6.88797700       5.84751200       6.70633500      -0.36592300      -0.36075765       1.53612564
S        6.48443700       9.41825000       0.85741300       0.32661546      -0.03708251       0.35826574
S        3.77339700       9.20470800       3.00733200       0.33251614       0.07069917      -0.00834426
S        8.25947300       0.10030200       0.57966900      -0.09431372       0.58189464      -0.18157748
S        6.35733600       1.77876700       9.51059300       0.26354424       0.20938550       0.31489329
S        7.76802400       3.57390800       0.53513500       0.14105895       0.20377124       0.20563272
S       10.81327900       1.94551700       1.86014600       0.40473380      -0.03417305       0.25715660
S        6.05729100       4.49144900       3.76511600      -0.58289891      -0.08310885      -0.77925046
S       10.07257700       1.95611000      -2.00047100      -0.16895490       0.72763248      -0.06671858
S        9.85266200       0.39270600       7.35190800      -0.47921815      -1.12582694       0.69924184
S        7.85356500       9.45903100      -5.29830000       0.42614955      -0.14344339       0.20577876
S        5.66058100       1.77911900       5.97895100       0.21317273       0.77674055       0.00594079
S        9.93664300       3.53770000       7.23692900       0.31371161       0.71098819       1.24103293
S        9.29290900       5.55377700       4.37223600      -0.66650861      -0.41821307      -0.04864167
S        6.63329500       7.60124100       3.89659600       0.07738661      -0.29904501       0.12694256
S        4.00701800       9.54726700       6.22435900       0.58146321      -0.03464613      -0.17603521
S        4.85606900       7.93899600      -3.42066600      -0.00253357      -1.13975820      -0.10525376
84
Lattice="12.375 0.0 0.0 -2.5754428754180116 11.867764321701818 0.0 -2.730270011857891 -4.41833150365321 11.2807594330424" Properties=species:S:1:pos:R:3:forces:R:3 energy=-20147.057494913584 pbc="T T T"
Li       2.56193100       7.47905700      -2.51114800      -0.21001902      -0.24901854       0.17313192
Li      -2.46201500      10.88446100       6.53863600       0.20713373      -0.23776791      -0.35513362
Li       3.35007600       3.35830100       4.30084200       0.24707530       0.26285365       0.13725988
Li       1.59501300       9.41896300       6.56306000      -0.30287235       0.29254012      -0.41135234
Li       2.82557900       1.64993100       7.59645500      -0.23494689       0.10939170      -0.40444275
Li      -1.25083700       8.24420000       0.16395800       0.29137952       0.23234751       0.23053282
Li       2.80735600      10.75821300      -1.62677500      -0.27471723       0.14470323       0.04658993
Li       3.47843500       4.52179100      -1.15745000       0.17448483      -0.22813553      -0.06238730
Li       2.77146200       7.64943600       4.49032700       0.08815130      -0.19662563       0.04721574
Li      -1.36918400       6.59250500       8.40447100       0.15236152       0.00423204      -0.03951528
Li       0.45545900       3.82079000       9.98339200       0.07361068       0.03145642      -0.34752984
Li       1.92959900       1.64180300       0.98147300       0.03561338      -0.27862582      -0.36525091
Li      -0.24064600       7.94672200       3.39679200       0.40940601      -0.15575589      -0.33877112
Li      -0.55222600       3.71112700       3.23594600       0.00852629       0.13064187      -0.37672678
Li       7.66768200       7.39735300      -3.87717400       0.03022486       0.11198286       0.04957550
Li       7.34934500       0.81175100       7.34185600      -0.28741077       0.06687491      -0.11942054
Li       8.93790600       3.36690400       2.66479000       0.01752772       0.08382516      -0.29186957
Li       6.43404800       9.54237600       5.24668000       0.23086758      -0.26061936       0.24125227
Li       9.92371300       2.43732300       5.64922600      -0.15565356      -0.19202284      -0.17441387
Li       5.85194100       9.75464900      -1.53104100       0.42021442      -0.19405144       0.34040429
Li      10.96313800       0.55775900      -0.28349200      -0.06010879       0.03381412       0.08795538
Li      10.14355000       4.77711000      -2.44954800      -0.02850633      -0.11633985      -0.12820497
Li       8.98494500       7.57720300       3.19427400       0.00149433       0.06388111      -0.03945666
Li       4.83094200       7.00361600       6.70986900       0.23042638       0.13293375       0.20219875
Li       5.69000400       3.81449200       8.13440600       0.25567873       0.43397136      -0.57554761
Li       7.65925800       1.89073300      -1.12476200      -0.05175528      -0.15300635      -0.15273998
Li       5.44034900       7.85842300       1.43326900      -0.22683918      -0.39723698       0.16197179
Li       5.43098400       3.39768000       1.12655700       0.41938343       0.26529568      -0.15166526
P        1.26456000       5.25847100       1.35701700      -0.22202813       0.64804501       0.41021488
P        2.46889300       8.65068300       1.40831200      -2.14189811       0.99595229       0.65159005
P        4.47866200       1.93176400       9.95770100       0.30796931       1.43748629      -0.03378378
P       -2.32779400       9.09600100      -2.55234200      -0.13726657      -0.02219993      -0.55676776
P        1.37958300       5.76656900       6.51493900      -0.05815527      -0.42966888       0.37498820
P        0.45722000       2.14397700       5.87093100      -0.05659872       0.37532912      -0.52545430
P        7.28544300       5.42315600      -0.55370900       0.94126698       0.15187866       0.37466321
P        8.52702300       8.76569300       0.13845700      -0.60436197       0.37804884       0.77120599
P       10.65422800       2.00552400       8.73018300       0.08262908       0.99821640      -0.30256536
P        3.97914100       9.38556100      -4.15397200      -0.61092702       0.71828086      -0.28336796
P        7.19335200       5.63474700       4.89687500      -0.98399615       0.10961641      -1.04065555
P        6.27931600       2.23925900       4.19260200      -0.77117462       0.76037959       0.34896195
S        3.44040700       8.66760200      -0.31994600       0.25113147       0.18472913      -0.92562233
S       -0.59478300       5.93535200       2.04069000       0.29007340      -0.51308523      -0.14341973
S        2.79331300       6.61383800       2.12411900      -0.43102385      -0.26181492       0.24251622
S        2.21637100       1.49218100       5.14107200      -0.39205981      -0.03607412       0.47443744
S        1.24327800       5.30392400      -0.64777900       0.42546667       0.27136400      -0.09715016
S        1.06298000       5.89244500       8.57364300      -0.09954489      -0.32160027      -0.65864155
S        0.50686100       9.42522900       1.45119800       1.55368113      -0.95737854       0.13383003
S       -1.94107600       9.23581100       4.10550500      -0.55718685       0.14829557       0.43140129
S       -1.21708800      10.46912400      -1.52079700      -0.49747966      -0.32251095      -0.64002677
S        0.69735400       1.87151400      11.26693000      -0.54177412      -0.25649788       0.91915035
S        1.81540700       3.57824200       2.40398700      -0.24644847       0.02437457      -0.46655341
S        4.93466000       1.71127000       2.75961100      -0.08207064      -0.65827286      -0.18651399
S        0.05973100       4.30571000       5.52325200       0.38857853       0.26650821       0.90898473
S        4.06422400       2.20270500      -0.43424200       0.34050302      -0.24096533      -0.35334568
S        3.63798400       0.25582000       9.26388400      -0.14978424      -0.81816719       0.07630417
S        1.96453100       9.44526900      -3.66925900       0.31545533       0.09089158       0.40614020
S        0.14134100       1.63882900       7.76662200       0.08608362       0.19784279       0.26007583
S        3.57065000       3.62011300       8.99885400      -0.06419685      -0.75982578       0.34921186
S        3.31526600       5.37923200       5.91503400      -0.67798242       0.21637479      -0.09410649
S        0.46309500       7.43272500       5.76591700       0.35938983       0.21533863      -0.60351093
S       -1.84037000       8.96429300       7.77469900      -0.10594179      -0.04310043       0.91214204
S       -1.92405900       7.16012200      -1.78170000      -0.30867688       0.56541387      -0.36960482
S        8.63803200       9.21826400      -1.78368400      -0.04885302      -0.00966581      -0.51481918
S        5.38242900       5.92948600      -0.16093300      -0.19259877      -0.10790406       0.12896653
S        8.71268600       6.69047000       0.58559800      -0.43902821      -0.35304435       0.03306696
S        8.10118400       1.48666100       3.84204300       0.34132217      -0.04942380       0.21940869
S        7.86887300       5.42832400      -2.46625700      -0.43669056      -0.09364626      -0.15022853
S        6.84079300       5.57061200       6.83929400      -0.03631015       0.17378909       0.79098395
S        6.80505000       9.55196400       0.93775600       0.37831263       0.24695137      -0.43390245
S        3.51057500       9.47291000       2.96589600       0.41814211      -0.44592082      -0.01384488
S        8.28455600       0.07518100       0.47655800       0.20220287      -0.00888625      -0.31170666
S        6.48879900       2.06167400       9.29556600      -0.35475053      -0.48428785       1.13831839
S        7.91095100       3.68117700       0.36941400      -0.36733299      -0.05518513       0.47851726
S       10.89369200       1.88743600       1.82872400      -0.18972582      -0.16630307      -0.03134740
S        5.87728500       4.33744600       3.72990700       0.68436904       0.23892439      -0.07441698
S        9.93468500       2.38221000      -1.68170100       0.98853774      -0.45351123      -1.21988560
S        9.84027300       0.47170300       7.60450200       0.01404182       0.10746594       0.18976027
S        7.63259000       9.51604500      -5.07452600       0.60207163      -0.16774803      -0.30022052
S        5.55904600       2.11885400       6.04469900       0.29562030      -0.56257177       0.51954539
S       10.10744100       3.72934100       7.62387500       0.05602280      -0.21937218       0.62204190
S        9.04557700       5.14834200       4.30377500       1.29907455      -0.10908625       0.03140088
S        6.65415700       7.37100600       3.98248600      -0.29531434       0.48176920      -0.09108904
S        4.13982900       9.40310800       6.14707800      -0.14138033      -0.19328731       0.83596077
S        4.89969600       7.81020500      -3.27439100       0.15988714      -0.62379591       0.00510467
84
Lattice="12.375 0.0 0.0 -2.5754428754180116 11.867764321701818 0.0 -2.730270011857891 -4.41833150365321 11.2807594330424" Properties=species:S:1:pos:R:3:forces:R:3 energy=-20146.826005925646 pbc="T T T"
Li       1.97697300       7.65881600      -2.21854700       0.02003198      -0.98580106       0.57073811
Li      -2.45880000      10.82766400       5.96451700       0.09072960       0.15514345       0.07391767
Li       2.77382500       3.82262500       4.14123800       0.23099151       0.13358629      -0.02576194
Li       1.70564400       9.43894400       6.67046600      -0.12192325       0.31758369       0.26469301
Li       3.06569200       0.99881900       7.17273000       0.01921643       0.00958250      -0.08253395
Li      -1.03361300       8.87184600      -0.10954300      -0.11176123      -0.29743910      -0.40497446
Li       6.91959000       0.23648800       2.23602200      -0.25873628      -0.14673131      -0.02189243
Li       3.38590900       4.32166500      -1.08145000       0.48443492      -0.13427843      -0.04673494
Li       3.13466400       7.71617800       4.60483500      -0.09445822      -0.22377185       0.16076748
Li      -1.44559800       6.62806000       8.30330000       0.26803185       0.15609733       0.05003470
Li       1.02188300       3.49391100       9.52187200      -0.23802965      -0.09603585      -0.08212823
Li       2.38235700       1.51375500       0.45334900      -0.06956325      -0.29677575      -0.05791204
Li      -0.17913700       7.68829500       3.16294400      -0.13197730       0.26973546       0.14959758
Li      -0.33402100       3.42049200       2.83838800      -0.18317413      -0.00583898      -0.22492987
Li       7.47242300       7.62489100      -3.24042100       0.03561184       0.15365427      -0.23532227
Li       7.09742900       0.68074900       7.49523300      -0.09083553      -0.01671783       0.08516882
Li       8.89918500       3.32242600       2.78378900       0.15393452       0.12202661      -0.09615720
Li       6.81366500       9.54556300       5.12527800      -0.06074694       0.23281236       0.12970598
Li       9.74349100       2.29186200       5.93702600      -0.03381978      -0.01555723      -0.07726319
Li       6.37468800       9.77245300      -1.46514100      -0.28313297       0.22903953      -0.47682856
Li      11.83523800       0.40769700      -0.17386200       0.06416548       0.00864148       0.00246055
Li       9.89297600       4.90271100      -2.46695900       0.42262508      -0.35033595      -0.31069982
Li       8.91059100       7.50019100       3.14958900       0.04007167       0.07843356      -0.08540485
Li       5.01350500       6.87585500       6.87682900      -0.08405965       0.32451847       0.40325336
Li       5.67567900       3.83369800       7.80230900       0.04591425      -0.03208685       0.13215213