2/geom.data (written by ASE) 

432 	 atoms 
3  atom types
0.0      22.384999048760879  xlo xhi
0.0      22.384815461166401  ylo yhi
0.0      22.385184821589927  zlo zhi


Masses 

1            6.94000000    # Li_atom 
2           30.97376199    # P_atom 
3           32.06499999    # S_atom 

Atoms 

     1   0   2   0.0      12.331717869807587      12.885155101664859      12.669353649886736
     2   0   3   0.0      12.124824725516554      14.594517044920476      11.562178692224798
     3   0   3   0.0      13.489891192970326      11.307316014391613      12.000453982765478
     4   0   3   0.0      13.452404733157209      13.438297700545037       14.24628333498188
     5   0   3   0.0      10.524837967322702      12.062705353309964      13.077798395498037
     6   0   2   0.0     0.92702457463548182      7.9595910245504351      14.351254519756333
     7   0   3   0.0      1.6667291722684836      7.0766753191199783      12.674184962269809
     8   0   3   0.0    0.051238862168059687      6.5000017988636882      15.435943325737394
     9   0   3   0.0      2.3709569459995579      9.2821272590757697      14.958461692391516
    10   0   3   0.0    0.011903079949646154      9.4520776597308007      13.423377527593086
    11   0   2   0.0      11.234254120042609      17.055861348922054      1.6553137504562434
    12   0   3   0.0      9.1616028717341944      17.253837098407729      1.6788527445456407
    13   0   3   0.0       12.33655672387343      18.749945043978293       2.062964989584263
    14   0   3   0.0      11.669813010372124      15.475076253049016      2.8417419346255022
    15   0   3   0.0      12.076040869842084       16.42599666086771      22.232274761112858
    16   0   2   0.0      14.354766008443292      1.9883246354506325      13.049700072389294
    17   0   3   0.0      13.714355056608758    0.067680842737843194       13.33504764216908
    18   0   3   0.0      14.941404370131607      2.6293330879330359      14.961540136874074
    19   0   3   0.0      16.030722061266118      1.8418158946696299      11.910440277905847
    20   0   3   0.0      12.856372553781952      3.1228287343099326      12.200207624309217
    21   0   2   0.0      15.230544478377295      6.9760054307634887      3.3827345806813507
    22   0   3   0.0      15.477558631290371      9.0582125568570664      3.2080159052532871
    23   0   3   0.0      16.016828393025438      6.3717741811368782      5.1601127319057154
    24   0   3   0.0      13.212551631344166      6.5403073893218533       3.198596910600731
    25   0   3   0.0      16.278623781393062      6.0820522384904683       1.834801282016548
    26   0   2   0.0      2.5095179637748903      10.357168855745954      3.7880975967612813
    27   0   3   0.0     0.70701599302814255      10.833075306079699      4.6209045562763729
    28   0   3   0.0       4.006047815755462      10.128685882610837      5.1876407442662531
    29   0   3   0.0      2.0024250878542187      8.4674431339792253      3.0531072867822004
    30   0   3   0.0      3.3596722817125895      11.791395599432249      2.5510282596751539
    31   0   2   0.0      1.6154700129044495      18.243187740047105       12.50971258887415
    32   0   3   0.0     0.62823071348932413      16.591352670533681       13.17649858511979
    33   0   3   0.0      2.7220614887245311      19.058395187750996      13.985555269165244
    34   0   3   0.0      2.6637195414007584      18.146842199932735      10.697292815657059
    35   0   3   0.0      22.333068433666593      19.367974843932288      12.076015164701632
    36   0   2   0.0      8.2036864114153243      4.3353344988830607      19.394207986944252
    37   0   3   0.0      6.8144151091719021      5.7560306488577631      19.843752069649206
    38   0   3   0.0      10.058481892104762      4.8423051230737766      20.320652491910181
    39   0   3   0.0      7.4201364152605755      2.5201019009767989      19.798110722036256
    40   0   3   0.0      8.5866945942632835      4.5691467806105015      17.360321029036154
    41   0   2   0.0      17.706600874345099      17.375778514256066      17.969993862352332
    42   0   3   0.0       17.62511086633468      15.956142874999271      19.445685400231259
    43   0   3   0.0       18.31829930622326      18.944926096860094      19.086301384440119
    44   0   3   0.0      19.171893012394104      17.111483227563049      16.547881674315168
    45   0   3   0.0      15.805543459002935       17.37186921127039      17.037274224162889
    46   0   2   0.0      6.3432397806767478      3.7734320628528555      9.0982294614090922
    47   0   3   0.0      8.0037365164937544      3.8042025955345138       10.32457396106523
    48   0   3   0.0      4.7878284404732376      3.3774950492352276      10.317957858336065
    49   0   3   0.0      6.1599947226042913      5.6348292102594311      8.3262499444195992
    50   0   3   0.0      6.6816746212443521      2.2651207326081066      7.7344724070427349
    51   0   2   0.0      18.999791047290898      14.510518169184188      6.9196728237408838
    52   0   3   0.0      17.574170931085572      13.373694299961315      7.9121252143040728
    53   0   3   0.0      20.526127634119973      13.249598953987789      6.4833355409589606
    54   0   3   0.0      18.128647668070766      15.447773874150387      5.3543646915286311
    55   0   3   0.0       19.59108584663182      16.070163147414011      8.1083912086697794
    56   0   2   0.0      2.8245718420269665      15.046183080942871      20.534870893962257
    57   0   3   0.0      3.0747192093034132       17.08315643417448      20.544105216184132
    58   0   3   0.0      1.0792466687929696      14.234670540093227      21.363337344452503
    59   0   3   0.0      2.6756199557445512      14.418652442175324      18.593390287658764
    60   0   3   0.0      4.3777952052204681      14.122241131827373      21.600516075358666
    61   0   2   0.0      8.9284389034426717       19.56907351504465      13.035018664510556
    62   0   3   0.0      10.059491099946095      19.986585950298817      11.362447623127458
    63   0   3   0.0      7.5611568572885455      21.119754504234404      13.335109248258243
    64   0   3   0.0      8.2187451991054452      17.668379034523849      12.555421405429852
    65   0   3   0.0      10.150057561659786      19.510871552674427      14.665409457525001
    66   0   2   0.0      16.945097762767602      21.014321163911447      6.5879618052368043
    67   0   3   0.0      15.002874733711826      20.683810585214793      5.9937272827414478
    68   0   3   0.0      18.553091847382277      19.864501765281297      6.0150650932402234
    69   0   3   0.0      17.201360835155661     0.14662263508385442      5.2397541913759929
    70   0   3   0.0       16.55689944206101      21.452979368549943      8.5421600706995786
    71   0   2   0.0      15.580646938535347      7.7983627679499481      16.693020218192196
    72   0   3   0.0      15.330766111871602      9.5563051803509573      15.816481767100946
    73   0   3   0.0      13.921197591164125      6.5226235066272649      16.417998197931503
    74   0   3   0.0      17.508268005399469      7.2214522289282588      16.187879451728652
    75   0   3   0.0      15.499485571239518      8.1262604105085767      18.725123349613941
    76   0   2   0.0      8.9858237404978283      1.6534593535593161      3.0644267545168002
    77   0   3   0.0      9.3252320063174814    0.064828198688782077      1.9175415823930166
    78   0   3   0.0      8.8941371748394502      2.9309450251721181      1.4212433767622796
    79   0   3   0.0      7.2209916838150638      1.1853739277686322      3.9725496727133542
    80   0   3   0.0      10.438365349384497      2.1298248565939106      4.3942779998100683
    81   0   2   0.0      9.1979553628233983      9.9177052995647159      0.7342240609489441
    82   0   3   0.0      8.8691698472692657      11.897804318666696      1.2004983924257533
    83   0   3   0.0      8.0451784088412417      9.5003990242396181      21.526602615919995
    84   0   3   0.0      11.218943839030931      9.5439761012920155     0.76520666021921158
    85   0   3   0.0      8.0120718696417921      8.3210026341638912      1.5225390963189784
    86   0   2   0.0      16.370006340600227       1.363691609685497      19.971464100750936
    87   0   3   0.0      17.063694239565567     0.15342999811554558      21.554020346782544
    88   0   3   0.0      15.199741579072798    0.063006915146363515      18.931303969230576
    89   0   3   0.0      15.398912394898366      3.0866030490875342      20.587997282513445
    90   0   3   0.0      17.975397453697902      1.9151345429637945       18.92603960741716
    91   0   2   0.0      8.4925008244006808      9.9671672719589441      6.8624741960684892
    92   0   3   0.0      8.4363941849013173      10.608698562914917      8.7713630243481493
    93   0   3   0.0      9.5393424954196337      11.196220967370662      5.6037451914613055
    94   0   3   0.0        9.43534857922009      8.1739385952282184      6.8576543560758392
    95   0   3   0.0      6.5134032849060697      9.8644636916638451      6.2656444865543905
    96   0   2   0.0      5.3306928281054953      19.560589146494831      5.3521831204773962
    97   0   3   0.0      5.1283047812602858      17.759644137943862      6.4445138783042912
    98   0   3   0.0       3.708490859674288      20.983830711270958      4.8953089261593954
    99   0   3   0.0      6.5322391021766713      20.689024207157029      6.5859947300733346
   100   0   3   0.0      5.9682037598580564      18.988172222667973      3.4353068216802964
   101   0   2   0.0      20.595121891530443      2.4246731145979425      15.424772153086094
   102   0   3   0.0      21.186063146028594       4.024435794069535      16.488131152071759
   103   0   3   0.0      22.159804941267275      1.2437935708757826       14.91174009766187
   104   0   3   0.0      19.362337522691924      1.2422377787993948      16.600399892269852
   105   0   3   0.0      19.502001280497471      3.4992577594107481      13.968013117683922
   106   0   2   0.0      17.994493321783143      11.918907731497107      20.853280989537467
   107   0   3   0.0      16.969391816469162      10.596767845854551      22.128026525824474
   108   0   3   0.0       17.39351738501864      13.798340366767881      20.923814199673213
   109   0   3   0.0      19.910155550062605      11.680440864753365      21.370692285764083
   110   0   3   0.0      17.545464073336852      11.069509690677325      18.866336549919506
   111   0   2   0.0      19.512492911366753      8.5106915607372802      7.5560448614159696
   112   0   3   0.0       18.67870949314494       9.788132060350117      8.9193532350774465
   113   0   3   0.0      19.815878468059427      9.5196584667203226      5.7794384723185317
   114   0   3   0.0      21.357055597812785        7.94710094784599      8.1531105484169082
   115   0   3   0.0      18.195156204427928      6.9442370802137008      7.2888094625299757
   116   0   2   0.0      10.255775365973902      20.909913228687614      19.392354676422102
   117   0   3   0.0      12.210654384667862      21.002041913610455      19.946827167979368
   118   0   3   0.0      9.4289438393189062      18.999185546066801      19.516968709663349
   119   0   3   0.0      9.1257275867128396      22.112363350959175      20.583101462506217
   120   0   3   0.0      10.035652879544951      21.486838141442931      17.381093685306436
   121   0   2   0.0      6.4564731100296928      11.999238879527187      12.570075567246855
   122   0   3   0.0      7.1565927546763008      10.509422658790653      13.691221455409412
   123   0   3   0.0       4.470342861792826       12.10771383193914      13.154192214149631
   124   0   3   0.0       7.761013054809335      13.551426848119105      12.991149123585386
   125   0   3   0.0      6.7284316954569992      11.786760281793311      10.606905499156051
   126   0   2   0.0     0.80850986512013079      3.4529910788928779       7.627255733766348
   127   0   3   0.0      1.1506587842690039      2.7384739656397801      9.5039727346690714
   128   0   3   0.0      2.2799660925878742      2.9683558704088191      6.1037092459551552
   129   0   3   0.0      22.107978295484429      1.9990530046218133      6.8472628745386803
   130   0   3   0.0     0.42438022070932574      5.4324606301602127      7.7052088755107073
   131   0   2   0.0      4.6426693584757066    0.033693237683146353      17.225133289069102
   132   0   3   0.0      5.1419836907172609    0.076055245524322204      19.140116438329741
   133   0   3   0.0      5.2728409246326002       21.01867579660528      15.906923297062193
   134   0   3   0.0      2.6530709633076319     0.16889549850715432      16.950871242985158
   135   0   3   0.0       6.008727190328039      1.0289642553983005      15.925678631505235
   136   0   2   0.0       12.19044185082206      5.6011064931712662         7.8236215666966
   137   0   3   0.0      13.123168684052256      6.8325988905013215      9.1646651131224299
   138   0   3   0.0      10.331756655245139      5.2826766441619357       8.567019483178214
   139   0   3   0.0      12.546863361698591      6.3495542818178059      5.9633768082778573
   140   0   3   0.0      12.853249531562529      3.5940215346220379      7.6522712630910847
   141   0   2   0.0      11.123258566258306      20.930828365303508      8.2277234683238341
   142   0   3   0.0      12.728795887365795      21.778754721347855       9.277096305789911
   143   0   3   0.0      9.6393973680009584    0.017962279784790491      8.3815894730990337
   144   0   3   0.0      11.178043378580355      20.716353626499231      6.2184511934294218
   145   0   3   0.0      10.554279822889393      19.150064044430192       9.018396547037641
   146   0   2   0.0      20.540572474451412      12.517505293537576       15.89595414274441
   147   0   3   0.0      19.940505229376686      11.653253340538949      17.644711749484671
   148   0   3   0.0      20.672660317249914      10.987439235190601      14.609852836853909
   149   0   3   0.0      19.338855284380784      13.984364609366104      15.116705427030233
   150   0   3   0.0      22.279925569070635      13.435784292823719      16.343278446427593
   151   0   2   0.0      16.640162107884898      17.418604438391746      10.654781493066462
   152   0   3   0.0       18.32961193242728      16.782492195937348      11.843501122195862
   153   0   3   0.0      17.152696706475844      19.007140694797602       9.497219995255481
   154   0   3   0.0      16.089839496497891      15.700002181768102      9.7939719883024274
   155   0   3   0.0      14.993996676917373      17.964694032871684      11.784741335771177
   156   0   2   0.0        9.10190905092254      5.2844060166414391       13.79217136062859
   157   0   3   0.0      10.389876318825026      6.8556009692909567      13.381247098855813
   158   0   3   0.0      6.9907967982215133      5.9071651186078711      13.825974444932674
   159   0   3   0.0      9.5620951429296479      4.3505186765228769      12.051290322635035
   160   0   3   0.0      9.8487394012777951      3.7061546394198595       15.01067669015919
   161   0   2   0.0      9.4585863829962467      13.617212109337805      19.158158894609667
   162   0   3   0.0      9.5486564577468478      15.165643223005347       20.51806205010913
   163   0   3   0.0      7.5025862561038004       12.94452654702425      19.191983777438534
   164   0   3   0.0      9.8185070057816564      14.569423964089056      17.257436054379383
   165   0   3   0.0      10.778650804532132       12.12271659496496      19.593781929959501
   166   0   2   0.0        5.19038147689621      5.3905410050766367       2.934785858363901
   167   0   3   0.0      6.7212407300821235      5.6080256379559712      1.5967810599322496
   168   0   3   0.0      4.5807102294007684      7.2751288050062461      3.4349396723464207
   169   0   3   0.0       3.854541358303738      4.3542625298475723      1.7049502056243842
   170   0   3   0.0       5.465504675277713      4.5480971610580356      4.8006330110428843
   171   0   2   0.0      21.244486632741182      4.5603615477955692      20.319937984257777
   172   0   3   0.0      20.941852225858266      2.8906291706572951       21.55799894043589
   173   0   3   0.0      22.340668101869092      3.3981983475203035      19.144771777133545
   174   0   3   0.0      19.952839599945641       5.343148582742562      18.923893212546407
   175   0   3   0.0      21.878289574796121       6.259928702804447      21.277488996653375
   176   0   2   0.0      13.755228104688523      22.291824166918992      2.1615686867768087
   177   0   3   0.0       14.45356012807879      1.7520244980661821      1.3870201211870725
   178   0   3   0.0      12.706025691407573    0.022138901658835777       3.836825452547346
   179   0   3   0.0      12.593736083034406      22.325583510974578     0.39638615432792573
   180   0   3   0.0      15.769448837540338      21.958859721854402      2.5194282841417253
   181   0   2   0.0    0.045297022031553967      13.036381297115273      10.663197510530178
   182   0   3   0.0      20.768340395655887       12.34093387463756      11.787271524237994
   183   0   3   0.0     0.69679073643138478      11.224906302394157      11.141969479544992
   184   0   3   0.0      22.351353589127633       13.49163025625931      8.7709838838701764
   185   0   3   0.0      22.388884432303026      14.646587414075443      11.912722982812053
   186   0   2   0.0      3.7484100970259329      8.3608701863239165      9.6602786287527245
   187   0   3   0.0      3.0976361387287406      10.288357176276454      9.7755233914160033
   188   0   3   0.0      2.5835011109962003      6.8199746780375898      10.211366224350389
   189   0   3   0.0       4.077739801596115      8.2741022057598812      7.6753146059280573
   190   0   3   0.0      5.3213152258866225      7.9564255182058146      11.009329574675981
   191   0   2   0.0      21.834633670784804      19.276113017460098      20.776349469493933
   192   0   3   0.0      19.900039062561717        20.0800487102325      21.503336112521666
   193   0   3   0.0      22.117181980728159      17.324760083544458      20.947233649603419
   194   0   3   0.0      22.328940546266889      19.973284678363299      18.935788479753725
   195   0   3   0.0     0.10589420848931004       20.40150568740917      22.315049301135204
   196   0   2   0.0      19.979046890551157      4.6287249380767204      3.5393256096433379
   197   0   3   0.0      20.626701198967005      5.8506880813754032      2.0210578132694166
   198   0   3   0.0      19.100422821652479      5.8347288934379309       4.915141094915751
   199   0   3   0.0       18.66405541302646      3.2626832272386235      2.6013357644135606
   200   0   3   0.0      21.395142841785294      3.4775418576989137       4.403009698340818
   201   0   2   0.0       13.36367733649084      11.103098366626405      8.1692401246945945
   202   0   3   0.0      11.496494870501051      10.450577950435473      8.5136820351508504
   203   0   3   0.0      14.807825983188833      9.6526176605661274      8.1075278987526715
   204   0   3   0.0      13.303079732959928      12.157227781364391      6.3795210912846452
   205   0   3   0.0       14.10575796361438        12.3692495124732      9.5963306247814373
   206   0   2   0.0      2.5976951448197263       2.911824942946728      13.219000307530282
   207   0   3   0.0      1.0033300833714414      4.0692370786865197      13.775793585279949
   208   0   3   0.0      3.0581618002409523      1.5352561433304213      14.573127104863966
   209   0   3   0.0      2.4313478219432683      1.8703840854539682      11.512320549202643
   210   0   3   0.0      4.1217720644826343      4.3001932859459009      13.202829775228201
   211   0   2   0.0      20.773919192180699     0.61939679616424115      10.809784390904751
   212   0   3   0.0      20.578663865140346      21.000425821773756      10.803715767965743
   213   0   3   0.0     0.30978225768745099    0.044913536203950138       10.69053668433313
   214   0   3   0.0      20.469328049923391      1.5459947955331923       9.084150517682847
   215   0   3   0.0      20.142492013612635     0.85720247365177471      12.665496865440039
   216   0   2   0.0      17.052161066743796      15.433012790376354      2.3734332734599333
   217   0   3   0.0      18.798694571678052      16.398631753416893      1.8547643031437349
   218   0   3   0.0      15.892061024680872      16.934977847698597      3.2397462422925387
   219   0   3   0.0      15.973132651184232      14.441601309332952     0.96635812595482506
   220   0   3   0.0      17.485275665030166      13.657165130925833      3.4708696038050704
   221   0   2   0.0      8.3607431255744125      9.4706385642616606      16.636219165368079
   222   0   3   0.0      6.9108255940874237      8.0283741406204996      17.014601174175585
   223   0   3   0.0      9.6025769896927908      8.7099937400016501      15.254862458472946
   224   0   3   0.0      7.3700341790957209      11.212885821051787      16.247342826149211
   225   0   3   0.0      9.6142732191436728      9.8871080075326603      18.182211146514216
   226   0   2   0.0       16.19693321576138       7.281133786116631      11.827943089585009
   227   0   3   0.0       16.38589170504887      5.3026342444119479      11.099269631708008
   228   0   3   0.0      17.158334538466331      8.5794422026247901      10.574281821158584
   229   0   3   0.0        14.2423281399843      7.8582714771736217      12.113233155668736
   230   0   3   0.0      17.276720423100222      7.2635786872942276      13.566472331055593
   231   0   2   0.0      4.8458687887535525      15.953312395615805      15.260208427124946
   232   0   3   0.0       2.877646349507351      16.182413116709395      14.717219869706579
   233   0   3   0.0      5.3707516702289038      14.223344362373108      14.426612408764369
   234   0   3   0.0      5.9987477779804257      17.548170187709317      14.709666750833581
   235   0   3   0.0       4.842404352204241      15.615564262585872      17.295316141725607
   236   0   2   0.0     0.70670287929175468      16.735494516382801      6.6151767912034369
   237   0   3   0.0      22.326064564193075      15.038984815689172      5.7981305660999602
   238   0   3   0.0      2.1664381830154529      17.066185124585417      5.1456502666236785
   239   0   3   0.0      22.346321578431596      18.709366597653965       6.859277916946577
   240   0   3   0.0      1.0620691765850574      16.260550949132732       8.524309299925882
   241   0   2   0.0      8.9332618911573611      14.716326008005643      7.7511985927176319
   242   0   3   0.0      9.6079440328666923      15.030089936386666      5.8362177196334546
   243   0   3   0.0      9.4207665649144641      16.225505491881226      9.0204391761111857
   244   0   3   0.0       6.845904187720107      14.848852757592534      7.4166697694017376
   245   0   3   0.0      9.6503309821737382       12.97397730260648      8.4729472298106909
   246   0   2   0.0      13.343159624606578      16.715419689594363      6.6609130319423411
   247   0   3   0.0      12.622987734285513       15.24570011459482      5.5042786020839438
   248   0   3   0.0      15.135713415722957      16.205590306142057      7.4611585390705546
   249   0   3   0.0      13.961572322133739      18.457141506720983      5.8113602634310446
   250   0   3   0.0      11.839960681918845      17.084303146109477      7.9521761246481599
   251   0   2   0.0      15.549980885727575      12.633859448723536      16.601590933410289
   252   0   3   0.0      15.650383199367822      14.688149973189368      16.776470692248623
   253   0   3   0.0      15.631629422563799      11.776860804707354      18.717622090500171
   254   0   3   0.0      13.581893020903307      11.930183669787814      16.604126585764611
   255   0   3   0.0      16.884338566463203      12.103715134847018      15.144136530086699
   256   0   2   0.0      2.6351501890892384      9.5190510040458207      19.389452990780146
   257   0   3   0.0      3.2698596017893529      7.7558448931588062      20.181810046327303
   258   0   3   0.0      4.0046522327544709      11.024993687938025      19.767214192390043
   259   0   3   0.0      2.6385244243338537      9.6759651843449284       17.28959669725382
   260   0   3   0.0     0.72451036171847605      9.6456335180878536      20.099218469337941
   261   0   2   0.0      13.988324672201109      19.858374467366378      16.205717129822187
   262   0   3   0.0       16.18870980536191      19.616126779932667      16.411224083692854
   263   0   3   0.0      13.391908626420001      21.385212171758081       17.29393629849767
   264   0   3   0.0      13.802775270274589      20.140377449724422      14.219727940635277
   265   0   3   0.0      12.878525758650143      18.162374600959033      16.761106658768522
   266   0   2   0.0      3.2533318751341995      4.7012975448631629      18.903177696472987
   267   0   3   0.0      4.0606915629000584      3.6195107264428303      20.413354094182402
   268   0   3   0.0      4.7493426713730535      5.9005004540522163      18.153560760276886
   269   0   3   0.0      2.5167917877424828      3.8039812830096724      17.263215384679413
   270   0   3   0.0      1.6960755598769945      5.7359500238159633      19.732966603244542
   271   0   1   0.0       0.943166272356456      22.374522937537812      1.9467816780631519
   272   0   1   0.0      1.3055219380429106     0.54194046578454114      5.4414530028951003
   273   0   1   0.0     0.41328706626853912      3.9029067503464776      0.4597177927797117
   274   0   1   0.0     0.28568668386063367      7.0027940387713139      1.2216912905373953
   275   0   1   0.0     0.15056752796049674      6.7982496817967659      9.9576876465244339
   276   0   1   0.0     0.89297339281356425      11.413169831235269      14.990107369445179
   277   0   1   0.0       1.952280484887678      13.165110329047186       1.047722327608468
   278   0   1   0.0      1.1034983172211117      13.243959709401624      4.5934131413132491
   279   0   1   0.0       1.669148305023173      12.174688930821292      18.100156426725878
   280   0   1   0.0     0.66381307419007096      19.775496159934168       9.699632644570924
   281   0   1   0.0     0.93532438387829908      20.836149187400398       16.78926120441993
   282   0   1   0.0      2.0499775879673172     0.32364158959811767      8.7571027251395979
   283   0   1   0.0      2.6134518893490686       2.609134350459267       2.991755440181465
   284   0   1   0.0      3.0025539854089454      1.4632094568806422       19.61449910967546
   285   0   1   0.0      3.0299782822230776      4.5622809550422287      8.9555938635674455
   286   0   1   0.0      2.8599342949857975      5.1405378296057123      15.197922416981942
   287   0   1   0.0      2.1703602481217854       6.068432273181954      5.7306859766581573
   288   0   1   0.0        3.30777000931085      7.7516426738641071      1.0019621722447416
   289   0   1   0.0       2.333319924961772      10.232810348270505      7.2196454310957456
   290   0   1   0.0      2.9106425036388228      10.417110812697226      12.275814470273612
   291   0   1   0.0      3.6588471165701093      15.080409868264686      6.0433665461923383
   292   0   1   0.0      2.3491258010797509      14.108210816669864      13.260934351896219
   293   0   1   0.0      2.3588056492659302      15.476918311627362      10.468869766996518
   294   0   1   0.0      1.8989809298179126       16.50334235324878      17.340530590698375
   295   0   1   0.0      3.2047720284138301       17.77396590296819      8.1634259091102663
   296   0   1   0.0      2.4070149490806281      19.648096367312871      3.0085317337460196
   297   0   1   0.0      2.0752597347853095      19.615500518754352      6.0835872399580859
   298   0   1   0.0      4.9250396386578288      1.4173205794901915      5.5363354576209245
   299   0   1   0.0      4.1643702451286915       6.656301424617701      12.627778391951601
   300   0   1   0.0      4.4254128544198856      8.0311907146007329      15.826436741249429
   301   0   1   0.0      5.1556609497864665      8.3881278457154647      18.711918207812499
   302   0   1   0.0      4.7857434041187972      11.860717897072718      17.283809753307057
   303   0   1   0.0      4.4340848822074364      16.167131784816259      3.1332369492764434
   304   0   1   0.0      3.5230576217472915      18.025491290543542     0.53785150992194397
   305   0   1   0.0      3.6415818774274751      19.199343930518697      16.969985573128135
   306   0   1   0.0      4.4490223780240346      21.195622347302439      1.4086008041278169
   307   0   1   0.0      5.7335513892892793     0.22944626281989092      8.8564081463186799
   308   0   1   0.0      6.2343567797531652      3.0709034909658701     0.84857278620063969
   309   0   1   0.0      6.2970470516341663      3.5789600576136964      12.449044224132185
   310   0   1   0.0      5.4243092198116791      6.7987123965732321       6.231812274828032
   311   0   1   0.0      6.4206703041651227      5.5918160150161587      16.325965418312542
   312   0   1   0.0      6.0456595090582006      7.5613685128879942      21.968777445518828
   313   0   1   0.0      6.9136591247447088      9.3425821916134471      10.066669487018039
   314   0   1   0.0      6.5605881433831099      11.892668879025361      22.255325145288111
   315   0   1   0.0      5.2471431163363871      12.322736377089237      4.9106682728288042
   316   0   1   0.0      6.2884194355880139      12.461920321331389       8.234293710142909
   317   0   1   0.0      6.3586282533338023      15.537358361689957      12.278623110282409
   318   0   1   0.0      6.1338411724740149      14.892201829226645      19.747784481179899
   319   0   1   0.0      6.1338147558313745       15.68479281299642     0.39119261590691828