LAMMPS (15 Sep 2022)
  using 1 OpenMP thread(s) per MPI task
# /home/carsten/Documents/PhD/LPS/MD_GAP/polarise/MD_GAP_CS.in (written by LAMMPScs 2.1 on Mon Jun 17 10:42:15 2019)

# ------------------------------ INITIALIZATION -------------------------------
units      metal
dimension  3
boundary   p p p
atom_style full
newton     on off
# ----------------------------- ATOM DEFINITION -------------------------------
read_data geom.data
Reading data file ...
  orthogonal box = (0 0 0) to (22.384999 22.384815 22.385185)
  4 by 3 by 6 MPI processor grid
  reading atoms ...
  432 atoms
Finding 1-2 1-3 1-4 neighbors ...
  special bond factors lj:    0        0        0       
  special bond factors coul:  0        0        0       
     0 = max # of 1-2 neighbors
     0 = max # of 1-3 neighbors
     0 = max # of 1-4 neighbors
     1 = max # of special neighbors
  special bonds CPU = 0.009 seconds
  read_data CPU = 0.058 seconds
timer timeout 24:00:00 every 100
New timer settings: style=normal  mode=nosync  timeout=00:00:00
# ------------------------------ ATOM GROUPING --------------------------------
group Li_atoms type 1
162 atoms in group Li_atoms
group P_atoms type 2
54 atoms in group P_atoms
group S_atoms type 3
216 atoms in group S_atoms

neighbor 2.0 bin
comm_modify vel yes

# ------------------------- GAP Potential ---------------------------


pair_style quip
pair_coeff      * * /u/thuss/templates/gaps/naps/gp_2b_soap.xml "IP GAP label=GAP_2023_2_8_0_13_56_52_159" 11 15 16

reset_timestep 0
# ------------------------ DEFINE COMPUTES --------------------------

compute thermo_press_lmp all pressure thermo_temp
compute ke_tech all ke
compute epot_tech all pe
compute vacf_p P_atoms vacf
compute vacf_s S_atoms vacf
compute msd_li Li_atoms msd com yes
variable etotal_tech equal c_ke_tech+c_epot_tech
variable temp_phys equal c_thermo_temp
variable ke_phys equal ke
variable etot_phys equal etotal
variable vol_v equal vol
variable T equal "500"

# ---------------------------------- TIMESTEP ------------------------------------
timestep 0.002

# ------------------------ RUNS ---------------------------
dump equiatoms all atom 500 geom.dump
dump_modify equiatoms scale no

thermo 100 # every 0.1
thermo_style custom step etotal pe ke temp press

fix therm_equ all nvt temp 300 600 1.0
run 50000
Neighbor list info ...
  update: every = 1 steps, delay = 0 steps, check = yes
  max neighbors/atom: 2000, page size: 100000
  master list distance cutoff = 8
  ghost atom cutoff = 8
  binsize = 4, bins = 6 6 6
  1 neighbor lists, perpetual/occasional/extra = 1 0 0
  (1) pair quip, perpetual
      attributes: full, newton on
      pair build: full/bin
      stencil: full/bin/3d
      bin: standard
Per MPI rank memory allocation (min/avg/max) = 8.036 | 8.036 | 8.036 Mbytes
   Step         TotEng         PotEng         KinEng          Temp          Press     
         0  -3569936.3     -3569936.3      0              0              38867.844    
       100  -3569941.2     -3570011        69.812081      1253.1085      15319.927    
       200  -3569950.9     -3570023.4      72.501828      1301.3888      9031.8068    
       300  -3569962.1     -3570029.1      66.989658      1202.4468      5456.157     
       400  -3569973       -3570034.4      61.441029      1102.8503      4844.4097    
       500  -3569983.5     -3570040.9      57.446717      1031.1535      4192.211     
       600  -3569993.1     -3570046.7      53.582793      961.79704      4237.092     
       700  -3570002.2     -3570051.2      48.981304      879.20153      2204.5315    
       800  -3570010.6     -3570058.4      47.748083      857.06553     -898.29155    
       900  -3570018.3     -3570060.5      42.221053      757.85679     -1123.1649    
      1000  -3570024.9     -3570064.5      39.538555      709.70667     -653.6603     
      1100  -3570031.1     -3570067.8      36.703374      658.81592     -4097.0777    
      1200  -3570036.8     -3570069.8      33.03621       592.99129     -1526.6022    
      1300  -3570041.7     -3570075.6      33.943417      609.27541     -3055.212     
      1400  -3570046.3     -3570076.9      30.609436      549.43133      150.81377    
      1500  -3570050.3     -3570078.5      28.194678      506.08705     -6067.8397    
      1600  -3570054.1     -3570081.9      27.798757      498.98037     -4381.757     
      1700  -3570057.5     -3570084.3      26.845339      481.86677     -5063.4971    
      1800  -3570060.5     -3570085        24.499311      439.75619     -7485.7962    
      1900  -3570063.3     -3570086        22.689334      407.26758     -3444.569     
      2000  -3570065.9     -3570088.6      22.726472      407.93419     -5604.7454    
      2100  -3570068.2     -3570089.4      21.217025      380.84002     -6093.6968    
      2200  -3570070.2     -3570090.1      19.882329      356.88258     -2633.1657    
      2300  -3570072       -3570090.9      18.830532      338.0031      -4511.0207    
      2400  -3570073.6     -3570092.5      18.852245      338.39285     -6040.9901    
      2500  -3570075.1     -3570093.2      18.086116      324.64103     -4574.9643    
      2600  -3570076.4     -3570094.1      17.729837      318.2459      -6982.0482    
      2700  -3570077.5     -3570094.7      17.237115      309.40168     -7064.712     
      2800  -3570078.5     -3570094.9      16.444366      295.17204     -6598.7931    
      2900  -3570079.3     -3570096.3      16.935387      303.98575     -7278.9517    
      3000  -3570080       -3570096.5      16.452122      295.31127     -5071.3506    
      3100  -3570080.6     -3570096.1      15.514284      278.47731     -5799.8167    
      3200  -3570081       -3570096.8      15.726836      282.29257     -5289.7387    
      3300  -3570081.3     -3570097.1      15.725552      282.26953     -5884.3353    
      3400  -3570081.5     -3570096.8      15.309135      274.79494     -5752.7954    
      3500  -3570081.5     -3570097.9      16.45531       295.36848     -4938.1221    
      3600  -3570081.3     -3570097.4      16.107311      289.122       -5176.4537    
      3700  -3570081       -3570097        15.947503      286.25348     -3755.2864    
      3800  -3570080.6     -3570097.2      16.562782      297.29758     -4505.8861    
      3900  -3570080.1     -3570097.4      17.279072      310.1548      -4227.4308    
      4000  -3570079.5     -3570097.8      18.280254      328.12576     -3911.7495    
      4100  -3570078.9     -3570096.8      17.973675      322.62274     -5048.6535    
      4200  -3570078.2     -3570096.2      18.013735      323.3418      -5111.2756    
      4300  -3570077.4     -3570096.1      18.676225      335.23334     -6035.3095    
      4400  -3570076.7     -3570094.7      17.979116      322.72041     -6263.2596    
      4500  -3570076       -3570095.3      19.277025      346.01753     -4907.0947    
      4600  -3570075.4     -3570094.7      19.267537      345.84723     -4890.0648    
      4700  -3570074.8     -3570094.7      19.816918      355.70846     -5059.1595    
      4800  -3570074.4     -3570093.8      19.370522      347.69577     -6282.0756    
      4900  -3570074.2     -3570094.4      20.174102      362.11983     -5269.5498    
      5000  -3570074.1     -3570093.8      19.694922      353.51866     -6955.1226    
      5100  -3570074.2     -3570095.3      21.148969      379.61844     -4210.8719    
      5200  -3570074.4     -3570093.9      19.479329      349.64884     -2983.6036    
      5300  -3570074.9     -3570094.8      19.910825      357.39408     -6335.9679    
      5400  -3570075.4     -3570095.4      20.036862      359.6564      -4953.9249    
      5500  -3570076       -3570095.5      19.544577      350.82002     -4139.9597    
      5600  -3570076.7     -3570095.7      19.004966      341.13414     -4240.2186    
      5700  -3570077.3     -3570096.5      19.214983      344.90389     -7362.1973    
      5800  -3570078       -3570097.4      19.42919       348.74886     -5189.7872    
      5900  -3570078.6     -3570097        18.442133      331.03144     -6749.2406    
      6000  -3570079.1     -3570096.9      17.817613      319.82147     -5945.8346    
      6100  -3570079.5     -3570097.9      18.400865      330.29069     -7001.7597    
      6200  -3570079.9     -3570098.2      18.247735      327.54205     -3823.9268    
      6300  -3570080.2     -3570097.2      16.954509      304.32897     -6137.1117    
      6400  -3570080.4     -3570097.2      16.830235      302.09828     -6365.2025    
      6500  -3570080.5     -3570097.3      16.836251      302.20628     -5745.1314    
      6600  -3570080.5     -3570097.5      17.075021      306.49213     -7185.2021    
      6700  -3570080.3     -3570097.4      17.130564      307.48912     -7453.7655    
      6800  -3570080.1     -3570097.3      17.250036      309.6336      -4360.6552    
      6900  -3570079.7     -3570096.6      16.911095      303.5497      -6660.7061    
      7000  -3570079.2     -3570097.5      18.313791      328.72774     -4933.6642    
      7100  -3570078.7     -3570097        18.364673      329.64105     -4486.4067    
      7200  -3570078.1     -3570096.7      18.650124      334.76482     -5377.4745    
      7300  -3570077.4     -3570095.8      18.367614      329.69385     -6128.6116    
      7400  -3570076.8     -3570095.7      18.960127      340.3293      -4856.0144    
      7500  -3570076.1     -3570096.2      20.058832      360.05076     -4325.3933    
      7600  -3570075.5     -3570095.1      19.688712      353.40721     -5339.2229    
      7700  -3570074.9     -3570094.3      19.434307      348.8407      -7973.7787    
      7800  -3570074.3     -3570095.1      20.737949      372.24074     -4789.5009    
      7900  -3570073.9     -3570095        21.156886      379.76053     -4886.4023    
      8000  -3570073.5     -3570094        20.490169      367.79315     -3792.2674    
      8100  -3570073.2     -3570093.6      20.38706       365.94237     -6240.9242    
      8200  -3570073       -3570093.5      20.433639      366.77845     -4320.7905    
      8300  -3570073       -3570094.5      21.47195       385.41586     -7285.6458    
      8400  -3570073.1     -3570094.5      21.449747      385.01733     -6499.7726    
      8500  -3570073.2     -3570092.7      19.466555      349.41955     -5300.7789    
      8600  -3570073.5     -3570093.7      20.17856       362.19984     -6422.2571    
      8700  -3570073.8     -3570094.5      20.621778      370.15549     -7661.5871    
      8800  -3570074.2     -3570093.9      19.70637       353.72416     -5420.6934    
      8900  -3570074.7     -3570094.4      19.71208       353.82665     -7515.2293    
      9000  -3570075.2     -3570095.6      20.427842      366.6744      -1236.3442    
      9100  -3570075.7     -3570095.6      19.900579      357.21016     -6425.7136    
      9200  -3570076.2     -3570095.5      19.254118      345.60636     -5489.4088    
      9300  -3570076.7     -3570096.1      19.346763      347.26931     -5267.8209    
      9400  -3570077.2     -3570095.5      18.285142      328.2135      -7326.7653    
      9500  -3570077.6     -3570096.6      19.025837      341.50877     -6173.3972    
      9600  -3570077.9     -3570096.6      18.724789      336.10504     -6955.86      
      9700  -3570078.1     -3570096.7      18.51739       332.38228     -7753.0043    
      9800  -3570078.3     -3570096.5      18.205973      326.79243     -5727.6927    
      9900  -3570078.3     -3570096.3      18.079504      324.52235     -5915.9597    
     10000  -3570078.1     -3570097        18.866107      338.64167     -6184.4651    
     10100  -3570077.9     -3570096.8      18.83638       338.10807     -6621.4842    
     10200  -3570077.6     -3570096        18.443336      331.05304     -4962.9348    
     10300  -3570077.2     -3570097.1      19.962941      358.32954     -6581.5201    
     10400  -3570076.7     -3570096.5      19.816853      355.7073      -5829.8929    
     10500  -3570076.1     -3570095.6      19.505021      350.11        -7182.5086    
     10600  -3570075.5     -3570095.9      20.362406      365.49984     -6611.5959    
     10700  -3570074.9     -3570094.9      20.050687      359.90456     -5407.9706    
     10800  -3570074.2     -3570093.8      19.556894      351.0411      -6431.3334    
     10900  -3570073.6     -3570094.7      21.104072      378.81254     -5533.8347    
     11000  -3570073       -3570094.5      21.472164      385.4197      -6876.4033    
     11100  -3570072.5     -3570095        22.528721      404.38461     -3975.805     
     11200  -3570072.1     -3570094.7      22.579023      405.28753     -5428.6633    
     11300  -3570071.8     -3570094.3      22.460309      403.15664     -5712.4699    
     11400  -3570071.7     -3570093.8      22.119902      397.04642     -3151.7904    
     11500  -3570071.7     -3570093.6      21.94585       393.92224     -9466.9879    
     11600  -3570071.8     -3570092.6      20.764435      372.71614     -2919.716     
     11700  -3570072       -3570092.8      20.7595        372.62757     -4547.8244    
     11800  -3570072.3     -3570092.6      20.329735      364.9134      -6038.6141    
     11900  -3570072.7     -3570094.6      21.959405      394.16555     -5630.7769    
     12000  -3570073.1     -3570093.7      20.614514      370.02511     -3220.8643    
     12100  -3570073.5     -3570094.4      20.840633      374.08388     -7046.6471    
     12200  -3570073.9     -3570094.9      21.005742      377.04755     -6511.9055    
     12300  -3570074.3     -3570096.1      21.769009      390.74799     -4390.5868    
     12400  -3570074.6     -3570094.1      19.425921      348.69017     -6541.2564    
     12500  -3570075       -3570094.6      19.649014      352.69463     -5693.4384    
     12600  -3570075.2     -3570096.1      20.876117      374.72081     -4347.8694    
     12700  -3570075.4     -3570095.5      20.097056      360.73687     -6209.543     
     12800  -3570075.5     -3570095.8      20.285033      364.11102     -5325.7677    
     12900  -3570075.5     -3570096.2      20.676054      371.12974     -3864.6839    
     13000  -3570075.4     -3570095        19.576053      351.385       -4834.7071    
     13100  -3570075.3     -3570094.7      19.370451      347.6945      -5937.5923    
     13200  -3570075       -3570094.6      19.568076      351.24183     -6808.1731    
     13300  -3570074.6     -3570095.2      20.561196      369.06807     -5406.6002    
     13400  -3570074.2     -3570095.3      21.105086      378.83074     -6188.5991    
     13500  -3570073.7     -3570094        20.283586      364.08503     -6769.8272    
     13600  -3570073.2     -3570094.6      21.352676      383.27492     -5418.7323    
     13700  -3570072.6     -3570092.7      20.084864      360.51803     -4180.8997    
     13800  -3570072.1     -3570094.6      22.522963      404.28127     -6727.5461    
     13900  -3570071.6     -3570094        22.337953      400.96037     -3520.6821    
     14000  -3570071.2     -3570094.2      23.028056      413.34755     -5694.6281    
     14100  -3570070.7     -3570092.7      21.927853      393.59919     -5596.1478    
     14200  -3570070.4     -3570093.4      23.059736      413.9162      -4930.7481    
     14300  -3570070.1     -3570092.6      22.48605       403.61869     -6594.6828    
     14400  -3570069.9     -3570092.6      22.705174      407.55191     -5684.7336    
     14500  -3570069.8     -3570093.6      23.839319      427.90951     -4134.842     
     14600  -3570069.8     -3570091.9      22.166753      397.88738     -4109.3191    
     14700  -3570069.9     -3570092.9      23.039982      413.56162     -4528.4271    
     14800  -3570070       -3570092.3      22.276774      399.86224     -6427.0791    
     14900  -3570070.2     -3570092.7      22.465861      403.25629     -4227.8342    
     15000  -3570070.5     -3570092        21.482004      385.59632     -5700.4787    
     15100  -3570070.9     -3570094.3      23.464741      421.18592     -5718.4112    
     15200  -3570071.3     -3570092.9      21.639483      388.42302     -3214.563     
     15300  -3570071.8     -3570094.6      22.79948       409.24468     -5999.6242    
     15400  -3570072.2     -3570093.3      21.102925      378.79195     -7774.3439    
     15500  -3570072.6     -3570094.5      21.87405       392.63345     -5772.5802    
     15600  -3570073       -3570094.3      21.312344      382.55098     -6131.5137    
     15700  -3570073.3     -3570094.9      21.673739      389.03791     -7703.6604    
     15800  -3570073.5     -3570095.7      22.214317      398.74114     -4912.9681    
     15900  -3570073.7     -3570095.4      21.785744      391.04837     -6282.7077    
     16000  -3570073.8     -3570094.8      21.065162      378.11413     -5983.432     
     16100  -3570073.8     -3570093.8      20.039457      359.70298     -3852.0906    
     16200  -3570073.7     -3570094.5      20.799596      373.34728     -6573.875     
     16300  -3570073.6     -3570094.2      20.609056      369.92713     -6042.9155    
     16400  -3570073.3     -3570093.9      20.583579      369.46982     -3454.0751    
     16500  -3570073       -3570095        21.936116      393.74751     -8300.1675    
     16600  -3570072.6     -3570094.8      22.142719      397.45599     -7242.4763    
     16700  -3570072.2     -3570093.9      21.690532      389.33935     -3450.2729    
     16800  -3570071.8     -3570094.4      22.613334      405.90341     -9578.7842    
     16900  -3570071.3     -3570094        22.707314      407.59032     -4994.3741    
     17000  -3570070.8     -3570092.7      21.892282      392.9607      -5301.9954    
     17100  -3570070.3     -3570094.3      23.955002      429.98599     -8321.2147    
     17200  -3570069.9     -3570093.4      23.50117       421.83982     -6454.8153    
     17300  -3570069.5     -3570092.6      23.108618      414.79362     -5382.4503    
     17400  -3570069.2     -3570091.9      22.776136      408.82565     -7462.6666    
     17500  -3570068.9     -3570090.8      21.930966      393.65508     -5374.4519    
     17600  -3570068.7     -3570091.2      22.519055      404.21111     -5730.3129    
     17700  -3570068.6     -3570093.1      24.552711      440.71471     -5432.802     
     17800  -3570068.5     -3570092.2      23.721822      425.80048     -5882.6688    
     17900  -3570068.5     -3570092.8      24.334401      436.79609     -5081.6409    
     18000  -3570068.5     -3570091.1      22.578031      405.26972     -5050.1248    
     18100  -3570068.6     -3570092.3      23.70168       425.43893     -6253.4301    
     18200  -3570068.8     -3570093        24.219253      434.72922     -6496.0042    
     18300  -3570069       -3570091.7      22.647702      406.5203      -5346.8902    
     18400  -3570069.3     -3570093.4      24.065037      431.96108     -5341.8861    
     18500  -3570069.6     -3570093        23.392697      419.89276     -5553.6883    
     18600  -3570070       -3570092.3      22.330354      400.82398     -3370.9161    
     18700  -3570070.3     -3570094.3      24.055503      431.78996     -5873.6774    
     18800  -3570070.6     -3570093.9      23.305529      418.32812     -5136.8171    
     18900  -3570070.8     -3570092.5      21.700388      389.51626     -4758.7762    
     19000  -3570071       -3570093.7      22.692357      407.32184     -5653.8129    
     19100  -3570071.2     -3570093.8      22.556852      404.88957     -3069.9006    
     19200  -3570071.4     -3570093.4      22.097057      396.63637     -7625.3481    
     19300  -3570071.4     -3570093.9      22.505667      403.97081     -6134.5319    
     19400  -3570071.4     -3570093.7      22.312694      400.50699     -5964.2243    
     19500  -3570071.3     -3570094.3      23.047183      413.69088     -6617.3785    
     19600  -3570071.1     -3570094.1      23.031092      413.40204     -5245.6361    
     19700  -3570070.9     -3570093.8      22.889177      410.85471     -4145.4956    
     19800  -3570070.6     -3570092.5      21.896705      393.04009     -3041.3241    
     19900  -3570070.2     -3570093.2      22.911436      411.25426     -5097.0721    
     20000  -3570069.8     -3570093.3      23.465657      421.20237     -3984.953     
     20100  -3570069.4     -3570092.8      23.395325      419.93992     -5159.5537    
     20200  -3570068.9     -3570093.4      24.418278      438.30167     -4080.9097    
     20300  -3570068.5     -3570091.8      23.324597      418.67039     -3842.4263    
     20400  -3570068       -3570092.1      24.120315      432.95331     -5895.0638    
     20500  -3570067.5     -3570090.4      22.909515      411.21977     -2493.2679    
     20600  -3570067       -3570089.6      22.530767      404.42134     -3619.6544    
     20700  -3570066.6     -3570089.6      23.042306      413.60333     -4709.1223    
     20800  -3570066.1     -3570088.8      22.706434      407.57452     -3839.9545    
     20900  -3570065.8     -3570089.7      23.966842      430.19852     -2185.7737    
     21000  -3570065.5     -3570090.6      25.171673      451.82491     -5822.3356    
     21100  -3570065.3     -3570090.5      25.202434      452.37707     -6457.1572    
     21200  -3570065.3     -3570090.3      25.042171      449.50038     -5351.9954    
     21300  -3570065.3     -3570089.6      24.245754      435.20491     -4526.771     
     21400  -3570065.4     -3570089        23.580934      423.27156     -3676.1212    
     21500  -3570065.6     -3570091        25.372284      455.42582     -3277.269     
     21600  -3570065.8     -3570089.7      23.892003      428.85517     -5669.8201    
     21700  -3570066.1     -3570090.5      24.370181      437.43835     -5096.1288    
     21800  -3570066.4     -3570090.1      23.771074      426.68453     -5266.6172    
     21900  -3570066.7     -3570090.5      23.806669      427.32344     -4884.3758    
     22000  -3570066.9     -3570089        22.066301      396.0843      -5563.2295    
     22100  -3570067.2     -3570092.3      25.045473      449.55965     -6208.1262    
     22200  -3570067.4     -3570091.7      24.284375      435.89815     -4156.6719    
     22300  -3570067.6     -3570090.4      22.798554      409.22806     -3799.6007    
     22400  -3570067.7     -3570091.5      23.815375      427.47971     -4793.1072    
     22500  -3570067.7     -3570091.6      23.903044      429.05335     -4090.0866    
     22600  -3570067.7     -3570090.2      22.489094      403.67333     -5866.2356    
     22700  -3570067.6     -3570091.9      24.253393      435.34203     -3522.3917    
     22800  -3570067.5     -3570092.1      24.60927       441.72993     -6020.9907    
     22900  -3570067.3     -3570091.6      24.303541      436.24217     -6000.3159    
     23000  -3570067.1     -3570091        23.887812      428.77994     -3477.2309    
     23100  -3570066.8     -3570090.3      23.498637      421.79436     -3634.8712    
     23200  -3570066.5     -3570091.1      24.556534      440.78332     -6548.6051    
     23300  -3570066.2     -3570090.2      23.972295      430.29639     -1115.3112    
     23400  -3570065.9     -3570091        25.090743      450.37223     -6499.9758    
     23500  -3570065.6     -3570090.3      24.75139       444.28095     -5238.3841    
     23600  -3570065.2     -3570090.8      25.582566      459.20034     -2488.6144    
     23700  -3570065       -3570089.7      24.783198      444.85189     -3096.1703    
     23800  -3570064.7     -3570089.2      24.519084      440.1111      -4217.5378    
     23900  -3570064.5     -3570089.6      25.0798        450.17581     -3929.8332    
     24000  -3570064.4     -3570089.6      25.197939      452.29639     -3917.0896    
     24100  -3570064.3     -3570090.9      26.60764       477.60013     -2757.7424    
     24200  -3570064.3     -3570090.6      26.271749      471.57099     -4605.445     
     24300  -3570064.4     -3570088.6      24.175014      433.93514     -2403.0422    
     24400  -3570064.5     -3570090.2      25.688057      461.09387     -3814.5293    
     24500  -3570064.7     -3570088.9      24.229007      434.90431     -3863.5485    
     24600  -3570064.9     -3570089.5      24.64157       442.3097      -5238.2168    
     24700  -3570065.1     -3570090.4      25.271106      453.60971     -1391.0074    
     24800  -3570065.3     -3570090.7      25.34127       454.86913     -6643.6002    
     24900  -3570065.6     -3570090.5      24.833621      445.75697     -4937.3809    
     25000  -3570065.9     -3570090.7      24.847401      446.00431     -3532.2216    
     25100  -3570066.1     -3570091        24.871039      446.42861     -5893.1604    
     25200  -3570066.3     -3570090.4      24.179684      434.01896     -7017.0569    
     25300  -3570066.4     -3570091.8      25.450502      456.82981     -3666.0048    
     25400  -3570066.4     -3570091.5      25.040441      449.46933     -4468.0548    
     25500  -3570066.4     -3570090        23.514703      422.08273     -6469.7263    
     25600  -3570066.4     -3570091.1      24.677693      442.9581      -853.13753    
     25700  -3570066.3     -3570089.9      23.618899      423.95303     -5552.8635    
     25800  -3570066.1     -3570091.7      25.545697      458.53855     -2095.7182    
     25900  -3570065.9     -3570089.7      23.79564       427.12548     -3277.0697    
     26000  -3570065.7     -3570092.5      26.828245      481.55994     -4621.3507    
     26100  -3570065.4     -3570090.5      25.072914      450.05221     -2500.2186    
     26200  -3570065.1     -3570091.4      26.298597      472.0529      -4915.53      
     26300  -3570064.9     -3570090.6      25.712584      461.53411     -2426.2623    
     26400  -3570064.6     -3570090.1      25.536147      458.36712     -5079.0812    
     26500  -3570064.3     -3570089.9      25.565233      458.88921     -4864.5463    
     26600  -3570064       -3570089.4      25.409913      456.10126     -4113.5687    
     26700  -3570063.8     -3570090.8      26.964082      483.99819     -5303.222     
     26800  -3570063.6     -3570089.4      25.850168      464.00372     -5715.8884    
     26900  -3570063.4     -3570088.7      25.33125       454.68928     -4812.6068    
     27000  -3570063.2     -3570090        26.816534      481.34973     -4157.8236    
     27100  -3570063.1     -3570090.2      27.101034      486.45644     -3614.3719    
     27200  -3570062.9     -3570089.6      26.686931      479.02339     -5064.1349    
     27300  -3570062.9     -3570089.8      26.91911       483.19094     -4865.3899    
     27400  -3570062.8     -3570089.6      26.802525      481.09827     -3171.4596    
     27500  -3570062.8     -3570088.5      25.712393      461.5307      -6866.2213    
     27600  -3570062.8     -3570088.2      25.423191      456.3396      -1997.7564    
     27700  -3570062.9     -3570087.4      24.542976      440.53997     -588.08822    
     27800  -3570062.9     -3570089.4      26.512627      475.89468     -6781.0788    
     27900  -3570063       -3570087.9      24.902966      447.00169     -3329.7704    
     28000  -3570063       -3570088.7      25.63418       460.12678     -7532.145     
     28100  -3570063.1     -3570088.9      25.8139        463.35271     -3269.5456    
     28200  -3570063       -3570089.3      26.289794      471.89488     -5258.3153    
     28300  -3570063       -3570088.4      25.408979      456.08449     -7760.1531    
     28400  -3570062.9     -3570089        26.081694      468.15956     -2833.4246    
     28500  -3570062.8     -3570088.2      25.354649      455.10928     -5176.4915    
     28600  -3570062.7     -3570089.2      26.477907      475.27146     -5188.2784    
     28700  -3570062.5     -3570088.6      26.068286      467.91888     -5328.9071    
     28800  -3570062.3     -3570090        27.731655      497.77592     -5749.6683    
     28900  -3570062.1     -3570088.5      26.391843      473.72664     -4848.4171    
     29000  -3570061.9     -3570087.8      25.96189       466.0091      -4062.7347    
     29100  -3570061.7     -3570088.9      27.200449      488.24091     -4363.6155    
     29200  -3570061.5     -3570088.5      26.9491        483.72925     -7625.1966    
     29300  -3570061.4     -3570088.2      26.74498       480.06535     -3930.1726    
     29400  -3570061.4     -3570088        26.678826      478.87791     -3857.1139    
     29500  -3570061.4     -3570088.6      27.23966       488.94473     -4232.0194    
     29600  -3570061.4     -3570087.7      26.253684      471.24673     -4217.081     
     29700  -3570061.5     -3570089.6      28.06859       503.82382     -5578.5565    
     29800  -3570061.7     -3570089.7      28.08321       504.08624     -3956.157     
     29900  -3570061.8     -3570088.1      26.228847      470.80091     -6434.6341    
     30000  -3570062       -3570089.6      27.528879      494.13615     -1948.2395    
     30100  -3570062.3     -3570089.7      27.466026      493.00794     -6411.9163    
     30200  -3570062.5     -3570088        25.518397      458.04851     -4974.8304    
     30300  -3570062.7     -3570088.4      25.734294      461.92381     -1953.8666    
     30400  -3570062.9     -3570089.7      26.772339      480.55645     -2279.3314    
     30500  -3570063       -3570088.9      25.881417      464.56464     -6319.2077    
     30600  -3570063.2     -3570088.8      25.619825      459.86912     -3864.9573    
     30700  -3570063.2     -3570089.8      26.663046      478.59467     -3211.271     
     30800  -3570063.2     -3570089.8      26.606168      477.57372     -4694.1971    
     30900  -3570063.1     -3570089.3      26.24039       471.00811     -750.98633    
     31000  -3570063       -3570089.9      26.945529      483.66516     -1322.1102    
     31100  -3570062.8     -3570089.8      26.975135      484.19658     -6343.0864    
     31200  -3570062.6     -3570089.2      26.556605      476.68409     -3727.8176    
     31300  -3570062.4     -3570089.3      26.901458      482.8741      -4531.7653    
     31400  -3570062       -3570087.8      25.780407      462.75153     -5517.5851    
     31500  -3570061.7     -3570087.2      25.506444      457.83397     -1882.0165    
     31600  -3570061.3     -3570090.2      28.893304      518.62721     -5493.6148    
     31700  -3570060.8     -3570088.2      27.454764      492.8058      -3561.0405    
     31800  -3570060.3     -3570088.3      28.011347      502.79631     -2674.2763    
     31900  -3570059.9     -3570087.5      27.598216      495.38073     -4405.4283    
     32000  -3570059.6     -3570085.7      26.122344      468.8892      -3690.7816    
     32100  -3570059.3     -3570087.7      28.432209      510.35068     -3031.8269    
     32200  -3570059       -3570088.2      29.191392      523.97781     -3825.8588    
     32300  -3570058.8     -3570087.1      28.305473      508.0758      -6498.0713    
     32400  -3570058.7     -3570087        28.286508      507.73539     -3848.9084    
     32500  -3570058.6     -3570086.8      28.202472      506.22696     -3598.7436    
     32600  -3570058.6     -3570088        29.360189      527.00767     -4761.5625    
     32700  -3570058.7     -3570086        27.342182      490.78498     -4969.0311    
     32800  -3570058.8     -3570085.9      27.084811      486.16524     -2401.9912    
     32900  -3570059       -3570085.2      26.227293      470.773       -4376.887     
     33000  -3570059.2     -3570085.9      26.661663      478.56984     -4583.0243    
     33100  -3570059.5     -3570085.9      26.484209      475.38459     -5361.9283    
     33200  -3570059.7     -3570086.4      26.743716      480.04267     -5261.5069    
     33300  -3570059.9     -3570088.3      28.36878       509.21214     -5408.0533    
     33400  -3570060.1     -3570087.8      27.714171      497.46208     -3987.6848    
     33500  -3570060.2     -3570087        26.705499      479.35669     -4760.3426    
     33600  -3570060.4     -3570087.9      27.499833      493.61478     -4893.8367    
     33700  -3570060.4     -3570088.4      27.961849      501.90783     -6012.5783    
     33800  -3570060.4     -3570088.1      27.672979      496.7227      -2142.852     
     33900  -3570060.4     -3570088.1      27.720243      497.57108     -5182.4756    
     34000  -3570060.4     -3570087.6      27.223636      488.65711     -2488.7014    
     34100  -3570060.2     -3570087.6      27.409818      491.99903     -3012.7247    
     34200  -3570060       -3570088.2      28.243413      506.96183     -5977.2425    
     34300  -3570059.7     -3570087.4      27.687608      496.98529     -3951.0379    
     34400  -3570059.4     -3570087        27.650285      496.31534     -3744.4167    
     34500  -3570059       -3570088.1      29.11112       522.53696     -5234.6484    
     34600  -3570058.5     -3570086.8      28.31099       508.17483     -812.30585    
     34700  -3570058.1     -3570086.4      28.303543      508.04115     -2472.8488    
     34800  -3570057.6     -3570086.7      29.078829      521.95734     -1349.9175    
     34900  -3570057.2     -3570086.2      28.952546      519.69059     -4711.3217    
     35000  -3570056.7     -3570085.6      28.863105      518.08515     -3452.9187    
     35100  -3570056.4     -3570085.6      29.250382      525.03667     -2418.4614    
     35200  -3570056       -3570085.8      29.816454      535.1975      -3005.5476    
     35300  -3570055.7     -3570084.7      28.999175      520.52756     -1512.9463    
     35400  -3570055.5     -3570084.2      28.752524      516.10025     -2124.4774    
     35500  -3570055.3     -3570085.4      30.044604      539.29273     -1667.6811    
     35600  -3570055.2     -3570085.1      29.895888      536.62332     -4304.2236    
     35700  -3570055.2     -3570085.1      29.917419      537.00981     -3526.2381    
     35800  -3570055.2     -3570086.5      31.294594      561.72974     -3207.0273    
     35900  -3570055.4     -3570085.2      29.865904      536.08513     -4891.6706    
     36000  -3570055.6     -3570083        27.393854      491.71247     -4253.2431    
     36100  -3570055.8     -3570084.5      28.686038      514.90684     -5668.1367    
     36200  -3570056.1     -3570086        29.899455      536.68736     -2516.1335    
     36300  -3570056.4     -3570085.5      29.031128      521.10111     -4259.0522    
     36400  -3570056.7     -3570084.5      27.795654      498.92469     -4787.1102    
     36500  -3570057       -3570084.2      27.178649      487.8496      -794.73605    
     36600  -3570057.3     -3570085.4      28.17713       505.77207     -3513.706     
     36700  -3570057.5     -3570086.3      28.781073      516.61269     -3587.3889    
     36800  -3570057.7     -3570086.2      28.506919      511.69169     -1932.5808    
     36900  -3570057.8     -3570087        29.107189      522.4664      -5319.5448    
     37000  -3570057.9     -3570086.4      28.491877      511.4217      -4428.5747    
     37100  -3570058       -3570086.9      28.914087      519.00026     -3605.7899    
     37200  -3570058       -3570087.3      29.325375      526.38276     -4777.0948    
     37300  -3570057.9     -3570084.9      27.038624      485.33619     -1121.7921    
     37400  -3570057.7     -3570085.4      27.689994      497.02812     -4243.9852    
     37500  -3570057.4     -3570087.3      29.862575      536.02537     -5025.5525    
     37600  -3570057.1     -3570087.5      30.398451      545.6442      -4189.9073    
     37700  -3570056.7     -3570085        28.268445      507.41115     -3452.0399    
     37800  -3570056.3     -3570084.1      27.799642      498.99626     -1713.7042    
     37900  -3570055.8     -3570084.6      28.82651       517.42827     -6586.2559    
     38000  -3570055.3     -3570084.1      28.772365      516.45639     -2742.8085    
     38100  -3570054.9     -3570085.3      30.417543      545.98691     -3641.0169    
     38200  -3570054.4     -3570084.7      30.251998      543.01542     -4297.3415    
     38300  -3570054       -3570083.8      29.789273      534.70962     -5138.5329    
     38400  -3570053.7     -3570082.2      28.467304      510.98063     -5196.9133    
     38500  -3570053.4     -3570084.4      31.019507      556.79199     -4580.5092    
     38600  -3570053.1     -3570084.3      31.178372      559.64358     -1489.2122    
     38700  -3570052.9     -3570084.3      31.386421      563.37801     -3031.5924    
     38800  -3570052.8     -3570083.5      30.759603      552.12678     -3669.6804    
     38900  -3570052.7     -3570084        31.220923      560.40736     -4719.6296    
     39000  -3570052.8     -3570083.8      30.996475      556.37858     -3367.369     
     39100  -3570052.9     -3570083.2      30.316346      544.17043     -5822.3308    
     39200  -3570053.1     -3570083.2      30.132105      540.86336     -3342.7996    
     39300  -3570053.3     -3570083.6      30.235922      542.72686      150.87779    
     39400  -3570053.6     -3570082.9      29.280305      525.57377     -4425.225     
     39500  -3570053.9     -3570083.5      29.656984      532.33506     -1883.3782    
     39600  -3570054.2     -3570084.6      30.346609      544.71366     -2712.625     
     39700  -3570054.6     -3570084.8      30.250067      542.98074     -3818.2031    
     39800  -3570055       -3570085.8      30.79125       552.69485     -1526.3115    
     39900  -3570055.4     -3570085        29.607262      531.44257     -3633.5659    
     40000  -3570055.8     -3570084.9      29.088684      522.13423     -3525.4272    
     40100  -3570056.1     -3570085.1      29.024142      520.97572     -3234.9683    
     40200  -3570056.4     -3570085.5      29.108683      522.49321     -2964.8178    
     40300  -3570056.5     -3570085        28.444504      510.57138     -4176.6976    
     40400  -3570056.6     -3570085.9      29.290794      525.76206     -1962.3111    
     40500  -3570056.5     -3570086.3      29.818962      535.24253     -4071.1363    
     40600  -3570056.3     -3570084.2      27.891593      500.64675     -3641.9908    
     40700  -3570056       -3570086        30.050628      539.40088     -3917.9079    
     40800  -3570055.4     -3570084        28.607634      513.4995      -3031.5064    
     40900  -3570054.5     -3570084.6      30.128643      540.80121     -5273.9209    
     41000  -3570053.5     -3570082.9      29.416225      528.01351     -2610.5814    
     41100  -3570052.8     -3570083.5      30.662589      550.3854      -1097.6062    
     41200  -3570052.3     -3570084.1      31.788233      570.59042     -4908.4987    
     41300  -3570052.1     -3570083.4      31.360518      562.91305     -4132.1975    
     41400  -3570051.9     -3570083.7      31.74742       569.85784     -6237.629     
     41500  -3570051.8     -3570083.7      31.837604      571.47663     -3436.1011    
     41600  -3570051.8     -3570082.9      31.111413      558.44168     -2587.3921    
     41700  -3570051.8     -3570084.8      33.01492       592.60913     -4111.9957    
     41800  -3570051.8     -3570083.1      31.311396      562.03132     -1769.9924    
     41900  -3570052       -3570083.8      31.770394      570.27022     -2627.9168    
     42000  -3570052.2     -3570083        30.735259      551.68981     -3608.1672    
     42100  -3570052.5     -3570083.5      31.000453      556.44998     -3330.4034    
     42200  -3570052.9     -3570084.4      31.455037      564.60964     -6857.6416    
     42300  -3570053.3     -3570084.2      30.894063      554.54031     -3270.8404    
     42400  -3570053.7     -3570083.4      29.658305      532.35878     -4486.9662    
     42500  -3570054.1     -3570084.6      30.562207      548.58358     -3685.6406    
     42600  -3570054.4     -3570084.1      29.703551      533.17094     -3597.9982    
     42700  -3570054.6     -3570082.8      28.262715      507.30831     -2965.2633    
     42800  -3570054.7     -3570085.7      31.017558      556.75702     -6388.8053    
     42900  -3570054.7     -3570085.3      30.562638      548.59132     -1935.0782    
     43000  -3570054.7     -3570083        28.281594      507.64718     -4048.7538    
     43100  -3570054.6     -3570086        31.391945      563.47716     -2804.2444    
     43200  -3570054.3     -3570085.6      31.231477      560.59679     -2505.3637    
     43300  -3570053.9     -3570084.5      30.546898      548.30878     -4711.0584    
     43400  -3570053.3     -3570083.2      29.944944      537.50387     -4337.2733    
     43500  -3570052.4     -3570084.7      32.298034      579.74122     -1361.7335    
     43600  -3570051.6     -3570083.2      31.608161      567.35818     -1426.973     
     43700  -3570050.9     -3570083        32.118925      576.52625     -2883.88      
     43800  -3570050.4     -3570082.4      32.027859      574.89165     -3216.7481    
     43900  -3570050.1     -3570082.2      32.090818      576.02174     -2946.5171    
     44000  -3570049.9     -3570083.1      33.167691      595.35134     -4132.7181    
     44100  -3570049.8     -3570081.8      31.993807      574.28043     -3384.4008    
     44200  -3570049.8     -3570082        32.196896      577.92582     -4470.8733    
     44300  -3570049.8     -3570081.1      31.313301      562.06553     -5531.6154    
     44400  -3570049.8     -3570081.2      31.408361      563.77182     -869.47304    
     44500  -3570049.8     -3570081.3      31.463378      564.75935     -3357.7958    
     44600  -3570050       -3570082.1      32.107215      576.31606     -3508.6674    
     44700  -3570050.3     -3570082.2      31.907554      572.7322      -3475.6372    
     44800  -3570050.7     -3570084.6      33.91203       608.71202     -4593.5374    
     44900  -3570051.1     -3570082        30.873583      554.1727      -4414.6618    
     45000  -3570051.6     -3570083.8      32.266012      579.16643     -2279.5049    
     45100  -3570052.1     -3570081.7      29.677328      532.70024     -3996.5502    
     45200  -3570052.5     -3570083.6      31.16038       559.32062     -3054.4473    
     45300  -3570052.9     -3570083.8      30.930491      555.19418     -4022.6996    
     45400  -3570053.2     -3570083.2      30.081059      539.9471      -4136.984     
     45500  -3570053.4     -3570083.4      30.017798      538.81158     -5397.6153    
     45600  -3570053.5     -3570083.6      30.049991      539.38943     -1108.2265    
     45700  -3570053.6     -3570084.5      30.973673      555.96929     -3900.363     
     45800  -3570053.5     -3570083.6      30.124588      540.72843     -3795.1946    
     45900  -3570053.3     -3570084.5      31.183183      559.72993     -6308.6226    
     46000  -3570052.8     -3570082.1      29.337075      526.59278     -4416.6267    
     46100  -3570052.1     -3570082.7      30.575264      548.81794     -5868.7535    
     46200  -3570051.2     -3570083.8      32.598017      585.12583     -6226.9136    
     46300  -3570050.4     -3570080.7      30.362731      545.00303     -1782.6522    
     46400  -3570049.7     -3570080.9      31.196167      559.96299     -1068.6142    
     46500  -3570049.1     -3570082        32.914518      590.80694     -3082.6435    
     46600  -3570048.7     -3570081.7      32.983871      592.05182     -4871.8383    
     46700  -3570048.4     -3570080.5      32.19034       577.80815     -4873.56      
     46800  -3570048.1     -3570078.9      30.822276      553.25175     -2271.653     
     46900  -3570047.9     -3570081.1      33.227783      596.42996     -6770.3644    
     47000  -3570047.7     -3570080.8      33.117424      594.44906     -1857.3007    
     47100  -3570047.5     -3570081.8      34.343252      616.45234     -2714.3759    
     47200  -3570047.3     -3570079.8      32.542808      584.13485     -2616.8575    
     47300  -3570047.2     -3570079.6      32.370908      581.04928     -2492.921     
     47400  -3570047.2     -3570080.6      33.410255      599.70529     -2565.9722    
     47500  -3570047.2     -3570079.8      32.584054      584.8752      -5784.6806    
     47600  -3570047.4     -3570079.9      32.524152      583.79997     -2684.735     
     47700  -3570047.6     -3570080.1      32.512327      583.58772     -3128.8802    
     47800  -3570047.9     -3570080.8      32.898719      590.52335     -3541.7502    
     47900  -3570048.3     -3570080.9      32.642638      585.92677     -3880.5573    
     48000  -3570048.7     -3570079.5      30.832061      553.42739     -2844.0166    
     48100  -3570049.1     -3570080.6      31.50282       565.46733     -1197.9119    
     48200  -3570049.5     -3570081.5      32.062803      575.51889     -4477.7906    
     48300  -3570049.8     -3570082.5      32.760074      588.03471     -4775.8207    
     48400  -3570050       -3570080.8      30.833567      553.45443     -5106.7641    
     48500  -3570050.1     -3570081.5      31.414682      563.88529     -3620.5712    
     48600  -3570050.1     -3570082.1      31.948776      573.47213     -4384.1532    
     48700  -3570050       -3570082.6      32.635218      585.79357     -5415.9016    
     48800  -3570049.7     -3570080.5      30.859395      553.91802     -5333.7667    
     48900  -3570049.2     -3570081.8      32.659222      586.22445     -1892.2226    
     49000  -3570048.5     -3570080.5      31.990631      574.22342     -5045.3472    
     49100  -3570047.6     -3570080.1      32.505737      583.46943     -4330.0797    
     49200  -3570046.8     -3570079.8      32.928381      591.05579     -4022.4122    
     49300  -3570046.1     -3570079.5      33.402815      599.57175     -6850.1198    
     49400  -3570045.6     -3570080.4      34.789159      624.45626     -3652.8834    
     49500  -3570045.3     -3570077.2      31.952713      573.54279     -2076.286     
     49600  -3570045       -3570079        34.013848      610.53963     -4782.5224    
     49700  -3570044.9     -3570076.6      31.700325      569.0125      -3557.292     
     49800  -3570044.7     -3570078.7      33.972604      609.79931     -5009.7397    
     49900  -3570044.6     -3570077        32.336062      580.42381     -4829.751     
     50000  -3570044.5     -3570077.3      32.762969      588.08668     -2178.0894    
Loop time of 4491.32 on 72 procs for 50000 steps with 432 atoms

Performance: 1.924 ns/day, 12.476 hours/ns, 11.133 timesteps/s, 4.809 katom-step/s
93.1% CPU use with 72 MPI tasks x 1 OpenMP threads

MPI task timing breakdown:
Section |  min time  |  avg time  |  max time  |%varavg| %total
---------------------------------------------------------------
Pair    | 2050.1     | 3368       | 3988.9     | 640.1 | 74.99
Bond    | 0.021759   | 0.033889   | 0.05146    |   3.9 |  0.00
Neigh   | 0.045278   | 0.083535   | 0.10619    |   3.1 |  0.00
Comm    | 500.8      | 1121.7     | 2435.1     |1108.5 | 24.97
Output  | 0.065779   | 0.066234   | 0.075137   |   0.4 |  0.00
Modify  | 0.97556    | 1.0905     | 5.5383     |  50.6 |  0.02
Other   |            | 0.4224     |            |       |  0.01

Nlocal:              6 ave           9 max           2 min
Histogram: 1 1 9 0 16 19 0 14 9 3
Nghost:        381.167 ave         393 max         364 min
Histogram: 3 2 1 11 6 10 12 14 9 4
Neighs:              0 ave           0 max           0 min
Histogram: 72 0 0 0 0 0 0 0 0 0
FullNghs:      492.278 ave         758 max         161 min
Histogram: 1 1 9 4 12 19 8 6 9 3

Total # of neighbors = 35444
Ave neighs/atom = 82.046296
Ave special neighs/atom = 0
Neighbor list builds = 2226
Dangerous builds = 0
unfix therm_equ

fix therm_equ2 all nvt temp 600 300 1.0
run 100000
Per MPI rank memory allocation (min/avg/max) = 8.036 | 8.036 | 8.037 Mbytes
   Step         TotEng         PotEng         KinEng          Temp          Press     
     50000  -3570044.5     -3570077.3      32.762969      588.08668     -2178.0894    
     50100  -3570044.6     -3570080.1      35.496789      637.15803     -1984.8829    
     50200  -3570044.6     -3570076.3      31.716241      569.29819     -6143.6808    
     50300  -3570044.7     -3570076.7      32.008875      574.55088     -5569.3166    
     50400  -3570044.7     -3570077.6      32.943145      591.3208      -4261.9355    
     50500  -3570044.7     -3570080        35.268206      633.05502     -3599.8323    
     50600  -3570044.7     -3570079        34.253037      614.833       -3929.789     
     50700  -3570044.8     -3570078.6      33.747268      605.75459     -1850.4013    
     50800  -3570045       -3570078.6      33.568688      602.54913     -4693.6173    
     50900  -3570045.3     -3570077        31.680518      568.65696     -1279.3359    
     51000  -3570045.8     -3570078.6      32.863519      589.89153     -4378.5581    
     51100  -3570046.4     -3570079.3      32.991478      592.18836     -1436.678     
     51200  -3570047       -3570079.5      32.489393      583.17606     -4138.3121    
     51300  -3570047.6     -3570080.8      33.113461      594.37792     -5695.2828    
     51400  -3570048.2     -3570080.8      32.54141       584.10975     -3368.5364    
     51500  -3570048.7     -3570079.4      30.682023      550.73424     -686.92304    
     51600  -3570049.1     -3570081.9      32.793696      588.63822     -1616.5363    
     51700  -3570049.3     -3570081.4      32.074685      575.73216     -6462.8647    
     51800  -3570049.5     -3570080.5      31.007653      556.57921     -3386.1204    
     51900  -3570049.5     -3570082.6      33.054677      593.32276     -4453.4052    
     52000  -3570049.5     -3570081.3      31.804594      570.8841      -4666.0021    
     52100  -3570049.4     -3570081.2      31.738587      569.69928     -6352.3728    
     52200  -3570049.3     -3570082        32.676027      586.5261      -2349.0814    
     52300  -3570049       -3570080.1      31.073485      557.76088     -3778.9429    
     52400  -3570048.6     -3570080.3      31.67514       568.56044     -3272.3117    
     52500  -3570048.1     -3570080.7      32.58816       584.94889     -83.018255    
     52600  -3570047.4     -3570080.9      33.422369      599.92274     -2794.0066    
     52700  -3570046.7     -3570078.9      32.196567      577.91991     -3348.7285    
     52800  -3570046       -3570079.1      33.016692      592.64095     -3864.6384    
     52900  -3570045.4     -3570078.3      32.878859      590.16688     -4216.6692    
     53000  -3570045       -3570078.6      33.621041      603.48885     -4274.9022    
     53100  -3570044.7     -3570077.2      32.442542      582.3351      -2152.0165    
     53200  -3570044.6     -3570079.6      34.999432      628.23061     -511.41249    
     53300  -3570044.6     -3570077.7      33.050977      593.25634     -2523.9378    
     53400  -3570044.8     -3570079.2      34.408582      617.625       -3135.9839    
     53500  -3570044.9     -3570078.5      33.614295      603.36776     -1250.4876    
     53600  -3570045.1     -3570081        35.885891      644.14232     -2368.6264    
     53700  -3570045.4     -3570079.1      33.768037      606.12738     -4143.341     
     53800  -3570045.6     -3570078        32.360918      580.86996     -5171.4226    
     53900  -3570045.9     -3570081.4      35.44383       636.20744     -2291.0478    
     54000  -3570046.2     -3570079.7      33.508539      601.46946     -1784.8894    
     54100  -3570046.4     -3570077.8      31.400363      563.62826     -3739.3798    
     54200  -3570046.7     -3570078.3      31.607787      567.35146     -3999.5133    
     54300  -3570046.9     -3570079.6      32.758578      588.00786     -5608.4483    
     54400  -3570047.1     -3570078.7      31.582494      566.89746     -4369.248     
     54500  -3570047.3     -3570079.7      32.492211      583.22664     -5927.0403    
     54600  -3570047.5     -3570081.5      34.001146      610.31164     -1205.7573    
     54700  -3570047.6     -3570080.7      33.081411      593.80264     -5084.6373    
     54800  -3570047.9     -3570079.8      31.942241      573.35482     -6579.8873    
     54900  -3570048.1     -3570079.8      31.650854      568.12452     -3334.9906    
     55000  -3570048.4     -3570079.6      31.207961      560.17469     -4904.5843    
     55100  -3570048.8     -3570081.3      32.504836      583.45325     -5670.0371    
     55200  -3570049.3     -3570080.8      31.460113      564.70075     -1323.0264    
     55300  -3570050       -3570079.4      29.434414      528.33999     -3582.5657    
     55400  -3570050.7     -3570081.6      30.929105      555.16931     -4357.1725    
     55500  -3570051.2     -3570080.5      29.322899      526.33832     -2358.3288    
     55600  -3570051.6     -3570082.3      30.739157      551.75979     -5179.0405    
     55700  -3570051.8     -3570082.6      30.763242      552.19211     -5714.3122    
     55800  -3570051.9     -3570082.4      30.456399      546.68435     -2133.0926    
     55900  -3570051.9     -3570083.3      31.443804      564.40801     -2996.176     
     56000  -3570051.7     -3570082.9      31.206339      560.14559     -6603.5717    
     56100  -3570051.4     -3570081.6      30.218291      542.41038     -3690.9815    
     56200  -3570051       -3570082.2      31.220854      560.40613     -1084.1481    
     56300  -3570050.4     -3570082.4      32.001714      574.42235     -7070.2608    
     56400  -3570049.7     -3570080.4      30.772748      552.36273     -5457.4752    
     56500  -3570049       -3570081.3      32.289521      579.5884      -1562.4901    
     56600  -3570048.5     -3570081.3      32.809127      588.9152      -3437.3408    
     56700  -3570048.1     -3570082.3      34.244703      614.68342     -5106.0033    
     56800  -3570047.9     -3570081.2      33.322876      598.13685     -3778.0329    
     56900  -3570047.8     -3570080.9      33.116099      594.42528     -2972.7059    
     57000  -3570047.7     -3570080.1      32.361144      580.87402     -1608.8097    
     57100  -3570047.7     -3570080.4      32.721113      587.33537     -4586.9081    
     57200  -3570047.7     -3570080.5      32.751759      587.88547     -4465.4328    
     57300  -3570047.8     -3570081.7      33.876599      608.07605     -3528.1797    
     57400  -3570047.9     -3570082.8      34.930203      626.98796     -4237.5763    
     57500  -3570048       -3570079.9      31.885699      572.33991     -3199.1419    
     57600  -3570048.2     -3570080.5      32.321348      580.1597      -970.88004    
     57700  -3570048.5     -3570081.1      32.635406      585.79695     -1601.9736    
     57800  -3570048.8     -3570081        32.165049      577.35417     -4589.8127    
     57900  -3570049.2     -3570082.9      33.725644      605.36644     -3519.6164    
     58000  -3570049.6     -3570082.1      32.509535      583.53761      500.9421     
     58100  -3570050.2     -3570082.1      31.984304      574.10985     -3044.0105    
     58200  -3570050.8     -3570082.7      31.909724      572.77115     -877.02331    
     58300  -3570051.4     -3570080.7      29.268952      525.37        -1973.8871    
     58400  -3570051.9     -3570084.3      32.352611      580.72085     -4655.7681    
     58500  -3570052.3     -3570082.7      30.419309      546.0186      -2117.1493    
     58600  -3570052.5     -3570084.7      32.175806      577.54725     -3968.2947    
     58700  -3570052.6     -3570084.2      31.567938      566.63619     -3501.1208    
     58800  -3570052.7     -3570084.2      31.544041      566.20725     -1028.9099    
     58900  -3570052.6     -3570084.7      32.055911      575.39518     -2084.1007    
     59000  -3570052.6     -3570081.5      28.958655      519.80025     -1893.4241    
     59100  -3570052.4     -3570084.3      31.87825       572.20621     -5266.4235    
     59200  -3570052.3     -3570083.9      31.598425      567.18341     -2247.7437    
     59300  -3570052.1     -3570082.6      30.526258      547.93831     -2206.2308    
     59400  -3570051.8     -3570083.1      31.270953      561.30539     -3634.7359    
     59500  -3570051.5     -3570084.4      32.847967      589.61236     -3804.6738    
     59600  -3570051.2     -3570080.9      29.741816      533.85777     -2770.5836    
     59700  -3570050.8     -3570081.9      31.110163      558.41924     -2649.0953    
     59800  -3570050.4     -3570082.8      32.357885      580.81553     -4068.1786    
     59900  -3570050.1     -3570080.7      30.620132      549.62332     -5716.1258    
     60000  -3570049.8     -3570082.2      32.396624      581.51088     -4619.3123    
     60100  -3570049.5     -3570081.3      31.745506      569.82349     -3375.3093    
     60200  -3570049.3     -3570082.8      33.529122      601.83892     -5855.4893    
     60300  -3570049.1     -3570081.1      32.024623      574.83357     -1856.2806    
     60400  -3570049.1     -3570082        32.930246      591.08926     -3879.7545    
     60500  -3570049       -3570080.4      31.332951      562.41822     -3988.5061    
     60600  -3570049.1     -3570081        31.928686      573.11152     -2817.0863    
     60700  -3570049.1     -3570082.3      33.212859      596.16208     -5664.7715    
     60800  -3570049.2     -3570081.8      32.564961      584.53249     -1548.8125    
     60900  -3570049.3     -3570081.5      32.18016       577.62541     -5382.1928    
     61000  -3570049.4     -3570080.1      30.69277       550.92715     -3268.9522    
     61100  -3570049.6     -3570081.5      31.91485       572.86316     -4142.1863    
     61200  -3570049.8     -3570081        31.212417      560.25467     -1822.634     
     61300  -3570050       -3570083        33.024761      592.78577     -4376.0608    
     61400  -3570050.4     -3570083.1      32.747317      587.80574     -3726.9301    
     61500  -3570051.1     -3570081.3      30.20526       542.17648     -6604.4152    
     61600  -3570052.2     -3570084        31.836932      571.46455     -3700.997     
     61700  -3570053.3     -3570082.5      29.249945      525.02881     -3593.5752    
     61800  -3570054.1     -3570082.6      28.492769      511.4377      -4786.2768    
     61900  -3570054.5     -3570083.3      28.785048      516.68404     -4280.1546    
     62000  -3570054.7     -3570083.2      28.542209      512.32515     -8000.9462    
     62100  -3570054.7     -3570083.6      28.931182      519.30711     -2786.0282    
     62200  -3570054.5     -3570085.2      30.71048       551.24505     -4274.9595    
     62300  -3570054.2     -3570085.6      31.354223      562.80006     -5520.8179    
     62400  -3570053.9     -3570083.4      29.553098      530.47034     -4905.2407    
     62500  -3570053.4     -3570085        31.600988      567.22942     -4786.9434    
     62600  -3570052.9     -3570083        30.11624       540.57859     -2079.9458    
     62700  -3570052.4     -3570082.6      30.227927      542.58333     -4278.7897    
     62800  -3570051.9     -3570083.2      31.288814      561.62599     -3471.6536    
     62900  -3570051.5     -3570082.9      31.334613      562.44806     -1789.4379    
     63000  -3570051.2     -3570083.5      32.261185      579.07978     -6471.5896    
     63100  -3570050.9     -3570083        32.085369      575.92394     -4317.2296    
     63200  -3570050.7     -3570082.4      31.666389      568.40336     -316.05221    
     63300  -3570050.6     -3570082.1      31.536602      566.07371     -2100.9831    
     63400  -3570050.4     -3570080.8      30.337126      544.54343     -4048.7321    
     63500  -3570050.4     -3570082.3      31.908649      572.75185     -885.05972    
     63600  -3570050.4     -3570082.4      32.088819      575.98586     -4531.031     
     63700  -3570050.4     -3570081.9      31.476005      564.98602     -3407.8291    
     63800  -3570050.6     -3570082.2      31.547015      566.26062     -785.65828    
     63900  -3570051       -3570082.6      31.586517      566.96968     -4485.956     
     64000  -3570051.4     -3570083        31.577535      566.80845     -2922.0998    
     64100  -3570052       -3570083.9      31.868971      572.03965     -2338.3105    
     64200  -3570052.7     -3570082.5      29.826426      535.37651     -7378.4896    
     64300  -3570053.4     -3570083.6      30.266274      543.27165     -5471.3601    
     64400  -3570054       -3570084.2      30.205536      542.18143     -4401.6928    
     64500  -3570054.5     -3570081.9      27.475808      493.18354     -6076.952     
     64600  -3570054.8     -3570084.5      29.777874      534.50501     -5861.653     
     64700  -3570054.9     -3570085        30.141728      541.03609     -4001.9032    
     64800  -3570054.9     -3570085.8      30.943217      555.42261     -3286.2998    
     64900  -3570054.8     -3570084.8      30.044012      539.28211     -4600.9696    
     65000  -3570054.6     -3570084.6      30.024379      538.9297      -938.214      
     65100  -3570054.4     -3570086.2      31.744028      569.79696     -4179.1915    
     65200  -3570054.3     -3570083.4      29.190902      523.96901     -5697.441     
     65300  -3570054.1     -3570083.8      29.733731      533.71266     -3797.9003    
     65400  -3570053.9     -3570084.1      30.260898      543.17516     -1733.2252    
     65500  -3570053.6     -3570084.5      30.841507      553.59694     -5142.7533    
     65600  -3570053.4     -3570083.6      30.174397      541.62249     -4000.5567    
     65700  -3570053.2     -3570083.7      30.51044       547.65438     -3978.0684    
     65800  -3570053       -3570084        31.008814      556.60005     -4823.1382    
     65900  -3570052.8     -3570084.3      31.473301      564.93747     -4680.7217    
     66000  -3570052.7     -3570082.6      29.935403      537.3326      -4212.1382    
     66100  -3570052.5     -3570083.8      31.28735       561.59971     -1829.5183    
     66200  -3570052.4     -3570082.2      29.849941      535.79859     -4330.9971    
     66300  -3570052.2     -3570082.9      30.727933      551.55832     -4046.4606    
     66400  -3570051.9     -3570082.5      30.608101      549.40737     -1240.0825    
     66500  -3570051.7     -3570082.5      30.774503      552.39424     -3131.9002    
     66600  -3570051.5     -3570081.9      30.449122      546.55374     -3812.1207    
     66700  -3570051.2     -3570081.8      30.601848      549.29513     -4752.9325    
     66800  -3570050.9     -3570082.1      31.210001      560.21132     -489.64911    
     66900  -3570050.5     -3570081.4      30.810511      553.04057     -6363.0366    
     67000  -3570050.1     -3570079.6      29.569812      530.77034     -6485.4991    
     67100  -3570049.5     -3570082.4      32.912862      590.77721     -1441.5776    
     67200  -3570048.7     -3570080.8      32.094409      576.0862      -3245.3109    
     67300  -3570047.9     -3570080.6      32.666836      586.36112     -3321.6377    
     67400  -3570047.2     -3570080.8      33.562871      602.44471     -4418.5875    
     67500  -3570046.7     -3570081.6      34.901068      626.46499     -3772.0663    
     67600  -3570046.5     -3570078.8      32.332701      580.36348     -1159.1607    
     67700  -3570046.5     -3570078.5      32.01875       574.72815     -3758.3506    
     67800  -3570046.7     -3570080        33.34111       598.46416     -3386.4464    
     67900  -3570047.2     -3570080.2      32.988572      592.13619     -413.08914    
     68000  -3570047.8     -3570080.8      32.985564      592.0822      -3432.413     
     68100  -3570048.5     -3570081        32.445322      582.38501     -2344.7367    
     68200  -3570049.1     -3570081.6      32.476703      582.94828     -2991.2442    
     68300  -3570049.6     -3570080.5      30.926634      555.12496     -2105.1517    
     68400  -3570049.9     -3570079.9      29.985629      538.23415     -6591.5708    
     68500  -3570050.2     -3570079.9      29.624679      531.75519     -3626.8007    
     68600  -3570050.5     -3570080.6      30.089764      540.10336     -4381.0222    
     68700  -3570050.7     -3570081.4      30.665177      550.43186     -289.5687     
     68800  -3570050.9     -3570081.9      30.964498      555.8046      -6165.3113    
     68900  -3570051.2     -3570081.4      30.24441       542.87921     -2862.3565    
     69000  -3570051.5     -3570082.5      31.034537      557.06178     -2589.271     
     69100  -3570051.8     -3570082.7      30.902169      554.6858      -5261.3116    
     69200  -3570052.1     -3570082        29.90287       536.74865     -3972.4163    
     69300  -3570052.4     -3570081.1      28.663081      514.49477     -2351.593     
     69400  -3570052.8     -3570083.5      30.714548      551.31805     -3761.4233    
     69500  -3570053.1     -3570081.9      28.805276      517.04713     -3644.8532    
     69600  -3570053.3     -3570082.9      29.525793      529.98021     -2788.4929    
     69700  -3570053.5     -3570082.4      28.852899      517.90195     -4202.1689    
     69800  -3570053.7     -3570082.4      28.717379      515.46941     -1534.2379    
     69900  -3570053.8     -3570082.2      28.339913      508.69399     -688.26356    
     70000  -3570053.9     -3570082.1      28.213065      506.4171      -2777.8128    
     70100  -3570053.8     -3570083.4      29.613324      531.55138     -1233.8585    
     70200  -3570053.7     -3570082.8      29.128201      522.84355     -4924.1566    
     70300  -3570053.5     -3570083.2      29.762997      534.23796     -3605.6741    
     70400  -3570053.1     -3570083.5      30.404797      545.75811     -1308.3894    
     70500  -3570052.6     -3570082.1      29.489928      529.33645     -6427.1054    
     70600  -3570052       -3570083.2      31.181165      559.69372     -4291.6173    
     70700  -3570051.4     -3570083.4      31.980972      574.05003     -6166.0013    
     70800  -3570050.8     -3570083.6      32.771234      588.23503     -2159.8278    
     70900  -3570050.4     -3570081.1      30.714371      551.31489     -3948.3936    
     71000  -3570050.1     -3570081        30.89577       554.57095     -4826.695     
     71100  -3570050.1     -3570082.5      32.378485      581.18529     -2043.5414    
     71200  -3570050.2     -3570082.4      32.275317      579.33344     -3081.7329    
     71300  -3570050.3     -3570080.9      30.519067      547.80923     -6154.3301    
     71400  -3570050.7     -3570081.6      30.921331      555.02976     -4559.537     
     71500  -3570051.1     -3570082.5      31.398135      563.58826     -3716.5562    
     71600  -3570051.8     -3570082.4      30.625776      549.72463     -4946.5178    
     71700  -3570052.5     -3570082.8      30.341477      544.62154     -5723.7782    
     71800  -3570053.1     -3570082.7      29.634048      531.92338     -1697.9865    
     71900  -3570053.6     -3570083.3      29.705467      533.20532     -5069.1586    
     72000  -3570053.9     -3570083.4      29.474428      529.05824     -4435.3834    
     72100  -3570054.1     -3570084.4      30.294315      543.77498     -3634.0527    
     72200  -3570054.2     -3570085.4      31.206282      560.14456     -4270.5343    
     72300  -3570054.3     -3570084.2      29.893752      536.58499     -4671.8318    
     72400  -3570054.4     -3570083.8      29.424758      528.16667     -4594.932     
     72500  -3570054.4     -3570083.9      29.507017      529.64319     -4661.2206    
     72600  -3570054.4     -3570083        28.573682      512.89008     -5461.8503    
     72700  -3570054.5     -3570084.7      30.169111      541.52761     -3432.9724    
     72800  -3570054.5     -3570082.6      28.01597       502.8793      -3607.209     
     72900  -3570054.5     -3570085.3      30.736174      551.70624     -4198.9187    
     73000  -3570054.5     -3570085.3      30.734133      551.6696      -4237.3227    
     73100  -3570054.5     -3570084.5      29.997638      538.44971     -2564.2642    
     73200  -3570054.5     -3570084.4      29.876284      536.27144     -7232.9253    
     73300  -3570054.6     -3570084        29.469199      528.96437     -5967.2251    
     73400  -3570054.6     -3570083.9      29.303954      525.99827     -1741.023     
     73500  -3570054.7     -3570083.4      28.781196      516.6149      -7823.0465    
     73600  -3570054.7     -3570085        30.265507      543.25789     -4162.9883    
     73700  -3570054.8     -3570086        31.177919      559.63545     -4079.9985    
     73800  -3570054.9     -3570084.7      29.773693      534.42996     -3737.6229    
     73900  -3570055       -3570085.2      30.176778      541.66523     -5534.4276    
     74000  -3570055.2     -3570083        27.820071      499.36296     -4287.4604    
     74100  -3570055.3     -3570082.9      27.629563      495.94339     -3664.3944    
     74200  -3570055.4     -3570084.7      29.274186      525.46395     -4011.5899    
     74300  -3570055.5     -3570084.6      29.020659      520.91319     -6924.6018    
     74400  -3570055.8     -3570083.5      27.691097      497.04792     -1679.4739    
     74500  -3570056       -3570085.2      29.173019      523.64802     -4148.2873    
     74600  -3570056.2     -3570085.2      28.973573      520.06802     -3967.2571    
     74700  -3570056.4     -3570085        28.579019      512.98587     -1375.9553    
     74800  -3570056.5     -3570085.1      28.508081      511.71256     -4068.8604    
     74900  -3570056.7     -3570086.4      29.695516      533.02671     -3455.8137    
     75000  -3570056.8     -3570085.8      28.954981      519.7343      -3090.3457    
     75100  -3570056.9     -3570083.8      26.863023      482.1842      -7325.2183    
     75200  -3570057       -3570086        29.002915      520.5947      -1781.6659    
     75300  -3570057       -3570083.8      26.822309      481.45339     -3757.3384    
     75400  -3570056.9     -3570085.6      28.645672      514.18228     -5820.1706    
     75500  -3570056.8     -3570084.8      27.980111      502.23564     -3323.0655    
     75600  -3570056.6     -3570084.5      27.931499      501.36307     -3645.6264    
     75700  -3570056.3     -3570084.6      28.285628      507.71958     -6014.5359    
     75800  -3570055.9     -3570084.9      28.979987      520.18315     -4852.3245    
     75900  -3570055.4     -3570084.8      29.381924      527.39782     -5739.2541    
     76000  -3570054.9     -3570083.4      28.463291      510.90859     -3199.847     
     76100  -3570054.5     -3570084.2      29.704938      533.19583     -4872.3076    
     76200  -3570054.1     -3570083.9      29.721908      533.50044     -2624.9529    
     76300  -3570053.9     -3570082.8      28.905976      518.85467     -3734.9626    
     76400  -3570053.7     -3570082.9      29.206424      524.24763     -4449.9411    
     76500  -3570053.5     -3570082.9      29.365767      527.1078      -1872.9523    
     76600  -3570053.5     -3570084.3      30.795287      552.76731     -4057.7473    
     76700  -3570053.6     -3570081.5      27.828571      499.51553     -4533.0299    
     76800  -3570053.9     -3570083.5      29.563152      530.65081     -3011.3385    
     76900  -3570054.4     -3570085.7      31.354204      562.79972     -4010.7047    
     77000  -3570055       -3570084.3      29.250752      525.04331     -6670.9053    
     77100  -3570055.8     -3570085        29.188691      523.92933     -3488.0859    
     77200  -3570056.5     -3570085.5      28.984238      520.25946     -4680.3993    
     77300  -3570057.1     -3570087.2      30.074491      539.8292      -4000.5415    
     77400  -3570057.4     -3570086.6      29.177056      523.72049     -6179.5267    
     77500  -3570057.6     -3570086.3      28.663298      514.49867     -4956.9636    
     77600  -3570057.7     -3570086        28.346481      508.81189     -5364.7459    
     77700  -3570057.7     -3570085.7      27.9794        502.22288     -4749.9308    
     77800  -3570057.8     -3570086.7      28.949462      519.63522     -3911.2034    
     77900  -3570057.7     -3570085.7      27.986113      502.34337     -3684.9413    
     78000  -3570057.6     -3570085.5      27.874571      500.34122     -2815.6955    
     78100  -3570057.5     -3570086        28.485185      511.30157     -5080.5669    
     78200  -3570057.4     -3570086.9      29.567792      530.73409     -3606.4827    
     78300  -3570057.2     -3570086.8      29.579927      530.9519      -5493.8822    
     78400  -3570057       -3570084.3      27.284868      489.75621     -2699.4803    
     78500  -3570056.8     -3570084.5      27.744391      498.00453     -4484.1502    
     78600  -3570056.5     -3570084.7      28.177641      505.78125     -4345.2878    
     78700  -3570056.2     -3570085.6      29.473683      529.04487     -4192.0344    
     78800  -3570055.7     -3570084.3      28.61215       513.58057     -7979.891     
     78900  -3570055.3     -3570085.9      30.609262      549.4282      -4661.1393    
     79000  -3570054.9     -3570084.7      29.783281      534.60207     -4297.3374    
     79100  -3570054.5     -3570083.7      29.108998      522.49886     -6202.8317    
     79200  -3570054.2     -3570083.3      29.116567      522.63473     -5470.6806    
     79300  -3570053.9     -3570082.9      29.058614      521.59448     -3268.8308    
     79400  -3570053.6     -3570082.3      28.736515      515.81288     -2920.4814    
     79500  -3570053.3     -3570082.7      29.407818      527.86261     -6167.7394    
     79600  -3570053.1     -3570082.8      29.657836      532.35035     -2712.2529    
     79700  -3570053       -3570083.3      30.318842      544.21525     -2515.1696    
     79800  -3570052.8     -3570082.6      29.869419      536.14822     -4201.8388    
     79900  -3570052.6     -3570081.7      29.107431      522.47073     -5400.2737    
     80000  -3570052.6     -3570082.9      30.257178      543.10839     -3284.575     
     80100  -3570052.8     -3570083.1      30.272145      543.37704     -3968.1116    
     80200  -3570053.1     -3570082.8      29.710912      533.30307     -2830.726     
     80300  -3570053.6     -3570083.2      29.541252      530.2577      -4691.3936    
     80400  -3570054.3     -3570082.7      28.402894      509.82447     -3622.3252    
     80500  -3570055       -3570083.8      28.821146      517.33199     -5056.1896    
     80600  -3570055.6     -3570083.7      28.107176      504.51642     -5369.0555    
     80700  -3570056.2     -3570083.7      27.477429      493.21263     -5188.7807    
     80800  -3570056.6     -3570085.6      28.928126      519.25226     -5960.744     
     80900  -3570057       -3570083.4      26.368196      473.30219     -3358.5264    
     81000  -3570057.3     -3570085.3      27.979313      502.22131     -5942.0928    
     81100  -3570057.6     -3570086        28.435175      510.40391     -7059.6265    
     81200  -3570057.8     -3570087.4      29.569892      530.77178     -4893.2078    
     81300  -3570058.1     -3570086.5      28.47126       511.05162     -8009.4878    
     81400  -3570058.3     -3570087.2      28.868598      518.18375     -4009.7046    
     81500  -3570058.6     -3570086.1      27.49136       493.46268     -4228.6614    
     81600  -3570058.9     -3570085.9      27.07876       486.05662     -6056.3988    
     81700  -3570059.1     -3570085.8      26.686035      479.00732     -5653.0915    
     81800  -3570059.3     -3570087.6      28.329478      508.50669     -4087.8857    
     81900  -3570059.4     -3570085.8      26.338918      472.77666     -2345.7069    
     82000  -3570059.5     -3570087.8      28.275925      507.54543     -5163.9291    
     82100  -3570059.6     -3570086.5      26.972173      484.14342     -4895.3992    
     82200  -3570059.5     -3570086.7      27.135711      487.07888     -2397.9713    
     82300  -3570059.4     -3570086.6      27.173326      487.75405     -4586.2503    
     82400  -3570059.3     -3570087.4      28.114468      504.64731     -7038.436     
     82500  -3570059       -3570086.7      27.772148      498.50276     -5241.3084    
     82600  -3570058.5     -3570086.4      27.911522      501.00449     -3936.7639    
     82700  -3570057.9     -3570086.2      28.252094      507.11766     -5135.7439    
     82800  -3570057.2     -3570085.2      27.979859      502.23112     -3552.567     
     82900  -3570056.5     -3570083.9      27.386156      491.57429     -2699.0011    
     83000  -3570056.1     -3570085.7      29.646493      532.14676     -5525.7977    
     83100  -3570055.8     -3570085.2      29.463507      528.86221     -4817.0218    
     83200  -3570055.6     -3570083.3      27.696824      497.15071     -3305.5483    
     83300  -3570055.6     -3570084.9      29.358646      526.97997     -4427.1227    
     83400  -3570055.6     -3570084.1      28.425302      510.22669     -4793.6167    
     83500  -3570055.8     -3570085        29.221612      524.52025     -5596.2606    
     83600  -3570056       -3570083.4      27.366831      491.22743     -4396.3877    
     83700  -3570056.3     -3570084.3      28.019203      502.93732     -4141.3299    
     83800  -3570056.7     -3570085.5      28.826598      517.42985     -546.36273    
     83900  -3570057.1     -3570086.8      29.738692      533.8017      -7280.9752    
     84000  -3570057.5     -3570086.6      29.047757      521.39959     -4624.8583    
     84100  -3570058       -3570086.8      28.865196      518.12268     -2905.8348    
     84200  -3570058.4     -3570085.5      27.12702       486.92287     -2411.3275    
     84300  -3570058.7     -3570086.3      27.594626      495.31627     -6953.5985    
     84400  -3570058.9     -3570087        28.073458      503.91118     -4073.1666    
     84500  -3570059.1     -3570086.6      27.514198      493.87262     -6206.6179    
     84600  -3570059.2     -3570087.1      27.842898      499.77269     -6558.7219    
     84700  -3570059.3     -3570086.9      27.552002      494.55118     -5393.6388    
     84800  -3570059.4     -3570086.6      27.235089      488.86269     -3998.7167    
     84900  -3570059.4     -3570085.8      26.441176      474.61216     -4532.2127    
     85000  -3570059.4     -3570086.9      27.464829      492.98645     -4177.6678    
     85100  -3570059.4     -3570087.1      27.782944      498.69654     -2914.775     
     85200  -3570059.3     -3570087.6      28.282721      507.66741     -5057.9532    
     85300  -3570059.3     -3570085.6      26.328464      472.58901     -4805.3251    
     85400  -3570059.3     -3570086.4      27.11366       486.68307     -4101.789     
     85500  -3570059.2     -3570085.6      26.364695      473.23935     -4088.6924    
     85600  -3570059.1     -3570087.2      28.117744      504.7061      -8592.2325    
     85700  -3570059       -3570087.1      28.086421      504.14387     -1312.4081    
     85800  -3570058.9     -3570085.7      26.880637      482.50037     -4642.6303    
     85900  -3570058.7     -3570087        28.230327      506.72694     -6785.1034    
     86000  -3570058.6     -3570085.6      26.98671       484.40435     -4433.1224    
     86100  -3570058.3     -3570086.8      28.423536      510.19499     -6537.2795    
     86200  -3570058.1     -3570085.7      27.589975      495.2328      -6441.6985    
     86300  -3570057.8     -3570085.8      27.977909      502.19612     -6077.7584    
     86400  -3570057.5     -3570085.6      28.084876      504.11614     -5438.9369    
     86500  -3570057.2     -3570085.8      28.546166      512.39618     -5522.3223    
     86600  -3570057       -3570085.8      28.817391      517.26459     -5516.8837    
[...]
    228800  -3570088.5     -3570104.3      15.801346      283.63        -1772.6351    
    228900  -3570088.2     -3570104.6      16.400237      294.37995      1876.2276    
    229000  -3570087.7     -3570103.5      15.753997      282.7801      -19.968708    
    229100  -3570087.2     -3570103.6      16.35285       293.52935      967.0314     
    229200  -3570086.8     -3570103.4      16.54458       296.97086     -1608.373     
    229300  -3570086.5     -3570103.5      16.920111      303.71154     -138.03482    
    229400  -3570086.3     -3570103.6      17.303809      310.59883      747.98378    
    229500  -3570086.2     -3570103.3      17.132842      307.53001      1556.2426    
    229600  -3570086.1     -3570103.2      17.098111      306.9066      -1868.6601    
    229700  -3570086       -3570103.4      17.345895      311.35426      1052.5041    
    229800  -3570086       -3570103.7      17.727266      318.19977     -2495.7729    
    229900  -3570086       -3570103.3      17.285127      310.26348      2211.0381    
    230000  -3570086.1     -3570103.4      17.316689      310.83002     -2267.3538    
    230100  -3570086.2     -3570103.9      17.625975      316.38161      1715.0613    
    230200  -3570086.5     -3570103.8      17.316968      310.83503     -628.24188    
    230300  -3570086.7     -3570102.9      16.235279      291.419        1371.4074    
    230400  -3570086.9     -3570103.8      16.913461      303.59217     -139.7768     
    230500  -3570087.1     -3570104.3      17.144573      307.74058     -782.19147    
    230600  -3570087.4     -3570104.3      16.914288      303.60702      540.77072    
    230700  -3570087.6     -3570104.8      17.18289       308.42837      2138.836     
    230800  -3570087.8     -3570102.8      15.01146       269.45176      279.1736     
    230900  -3570087.9     -3570104        16.116009      289.27812      705.69447    
    231000  -3570088       -3570105.3      17.230844      309.28912     -2255.3334    
    231100  -3570088.1     -3570104        15.917305      285.71145     -565.76242    
    231200  -3570088.1     -3570103.8      15.711772      282.02217      343.58029    
    231300  -3570088.1     -3570103.8      15.744451      282.60875      903.52943    
    231400  -3570088       -3570104.3      16.303131      292.63692      2588.6119    
    231500  -3570087.9     -3570103.6      15.738071      282.49423      837.30274    
    231600  -3570087.7     -3570104.3      16.621872      298.35823      785.79091    
    231700  -3570087.5     -3570103.4      15.935794      286.04331      1106.8774    
    231800  -3570087.1     -3570103.9      16.736988      300.42453      835.44971    
    231900  -3570086.6     -3570103.9      17.222114      309.13242      2175.4607    
    232000  -3570086.1     -3570102.8      16.711848      299.97328     -2100.157     
    232100  -3570085.6     -3570103        17.415422      312.60225      2495.4313    
    232200  -3570085.4     -3570104.3      18.870929      338.72821     -790.54444    
    232300  -3570085.3     -3570103.4      18.142832      325.65907     -1994.3344    
    232400  -3570085.3     -3570102.1      16.817992      301.87853      2256.1414    
    232500  -3570085.3     -3570102.8      17.427432      312.81781     -970.73382    
    232600  -3570085.4     -3570102.4      16.938875      304.04835     -125.3463     
    232700  -3570085.6     -3570103.4      17.858382      320.55326      1767.8911    
    232800  -3570085.8     -3570103.2      17.40909       312.48858      297.57476    
    232900  -3570086.1     -3570103.6      17.50115       314.14104      1465.0719    
    233000  -3570086.3     -3570103.7      17.465349      313.49842     -574.46716    
    233100  -3570086.5     -3570103        16.573326      297.48685     -379.43186    
    233200  -3570086.7     -3570103.3      16.648442      298.83517      793.23028    
    233300  -3570086.9     -3570103        16.11072       289.18319     -89.907026    
    233400  -3570087.1     -3570102.9      15.839302      284.31131     -440.75792    
    233500  -3570087.2     -3570103.8      16.559965      297.24703     -765.80107    
    233600  -3570087.3     -3570104.2      16.839753      302.26915     -986.40133    
    233700  -3570087.4     -3570103.6      16.196284      290.71903      931.19834    
    233800  -3570087.4     -3570103.1      15.725233      282.2638      -1010.1211    
    233900  -3570087.4     -3570104.1      16.689719      299.57606      1180.4252    
    234000  -3570087.4     -3570103.5      16.13037       289.5359      -1466.848     
    234100  -3570087.3     -3570103.2      15.980949      286.85383      254.5081     
    234200  -3570087.1     -3570104.2      17.081483      306.60814      546.67846    
    234300  -3570086.9     -3570103.7      16.742873      300.53017      1211.636     
    234400  -3570086.6     -3570102.7      16.101626      289.01995     -2113.2694    
    234500  -3570086.2     -3570102.7      16.466525      295.5698      -603.84983    
    234600  -3570085.8     -3570102.8      17.082567      306.62759      3232.7611    
    234700  -3570085.4     -3570103.1      17.666096      317.10178     -4009.4497    
    234800  -3570085.2     -3570102.5      17.349027      311.41047     -220.40065    
    234900  -3570084.9     -3570102.3      17.412373      312.54751      1027.9817    
    235000  -3570084.8     -3570102.2      17.372741      311.83613      644.73498    
    235100  -3570084.9     -3570101.6      16.748767      300.63596      924.67153    
    235200  -3570084.9     -3570102.5      17.550987      315.0356       1770.9778    
    235300  -3570085.1     -3570102        16.938214      304.03649      501.36133    
    235400  -3570085.2     -3570102.6      17.456396      313.33771      190.58331    
    235500  -3570085.4     -3570103        17.679452      317.34152     -687.31424    
    235600  -3570085.6     -3570103.4      17.812857      319.7361      -1506.9972    
    235700  -3570085.7     -3570103.5      17.71746       318.02374      2444.7179    
    235800  -3570086       -3570103.4      17.39303       312.20032      413.87027    
    235900  -3570086.2     -3570102.9      16.710956      299.95727      507.88376    
    236000  -3570086.4     -3570104.9      18.535521      332.70774     -29.632087    
    236100  -3570086.6     -3570104.5      17.910009      321.47994      236.07587    
    236200  -3570086.8     -3570103.2      16.460626      295.46391     -569.55485    
    236300  -3570086.9     -3570103.4      16.527653      296.66703      2251.2137    
    236400  -3570087       -3570103.6      16.611946      298.18006      500.18535    
    236500  -3570087.1     -3570104        16.873474      302.87442      879.73494    
    236600  -3570087.1     -3570103.9      16.775869      301.12244     -1302.0498    
    236700  -3570087.1     -3570103.8      16.680245      299.40602      1525.7947    
    236800  -3570087.1     -3570104.3      17.131746      307.51033     -391.68218    
    236900  -3570087.1     -3570103.6      16.490541      296.00088     -55.784651    
    237000  -3570087.1     -3570102.3      15.188539      272.63028     -2458.8619    
    237100  -3570087       -3570103.5      16.526963      296.65464      2283.2712    
    237200  -3570086.9     -3570102.9      15.974127      286.73137     -959.66461    
    237300  -3570086.7     -3570104.1      17.422869      312.73592     -913.34141    
    237400  -3570086.5     -3570102.7      16.194654      290.68978      3387.2903    
    237500  -3570086.2     -3570103.2      17.031028      305.70248     -1470.8587    
    237600  -3570085.8     -3570103.5      17.76963       318.96018      571.7676     
    237700  -3570085.3     -3570102.5      17.184798      308.46261     -2138.8406    
    237800  -3570084.9     -3570102.6      17.716736      318.01075      2603.0867    
    237900  -3570084.6     -3570102.5      17.853781      320.47067      102.91818    
    238000  -3570084.5     -3570101.8      17.301807      310.56289     -957.02714    
    238100  -3570084.4     -3570102.5      18.135989      325.53623      3220.8732    
    238200  -3570084.6     -3570103.3      18.698318      335.62989      91.976837    
    238300  -3570084.6     -3570102        17.34162       311.27752     -1807.1399    
    238400  -3570084.8     -3570103.2      18.429266      330.80048      1803.2216    
    238500  -3570085       -3570102.4      17.383383      312.02715     -1151.0454    
    238600  -3570085.3     -3570102.5      17.184371      308.45495      1281.539     
    238700  -3570085.5     -3570103        17.506738      314.24134      610.8484     
    238800  -3570085.7     -3570102.8      17.062328      306.2643       366.23026    
    238900  -3570085.9     -3570101.9      16.000718      287.20868     -156.80124    
    239000  -3570086.1     -3570103.1      16.981596      304.81518      1176.6941    
    239100  -3570086.3     -3570102.7      16.362068      293.69482     -299.35818    
    239200  -3570086.4     -3570103.1      16.673766      299.28971     -127.40063    
    239300  -3570086.5     -3570102.8      16.265203      291.95611      966.76763    
    239400  -3570086.6     -3570102.7      16.093962      288.88238      178.32602    
    239500  -3570086.7     -3570103.4      16.763374      300.89816     -140.95493    
    239600  -3570086.7     -3570103.9      17.15742       307.97119      415.16584    
    239700  -3570086.7     -3570103        16.268016      292.0066      -1659.2258    
    239800  -3570086.8     -3570104.1      17.354356      311.50613      1973.3538    
    239900  -3570086.8     -3570103.5      16.654151      298.93762     -1196.6481    
    240000  -3570086.8     -3570103.9      17.094017      306.83311     -1370.8977    
    240100  -3570086.9     -3570103.9      17.007349      305.27745     -430.50252    
    240200  -3570086.9     -3570104.3      17.316732      310.83079      1078.742     
    240300  -3570087       -3570103.4      16.353838      293.54708     -580.17991    
    240400  -3570087.1     -3570103.5      16.372225      293.87714     -680.18906    
    240500  -3570087.2     -3570104.1      16.821341      301.93866      1487.019     
    240600  -3570087.4     -3570104        16.623316      298.38416     -718.67348    
    240700  -3570087.6     -3570103.8      16.239111      291.48777     -410.34694    
    240800  -3570087.8     -3570105        17.195326      308.65158     -713.81514    
    240900  -3570088.1     -3570103.7      15.622277      280.41576      583.21933    
    241000  -3570088.3     -3570104.6      16.327864      293.08086      229.39769    
    241100  -3570088.4     -3570104        15.601558      280.04386      441.09535    
    241200  -3570088.5     -3570104.7      16.170873      290.26291      1026.355     
    241300  -3570088.6     -3570103.9      15.261177      273.93411     -830.67723    
    241400  -3570088.6     -3570104.6      15.97764       286.79444      1194.4019    
    241500  -3570088.5     -3570105        16.502159      296.20942     -2489.6981    
    241600  -3570088.5     -3570104.4      15.922255      285.80029      1492.0141    
    241700  -3570088.2     -3570104.1      15.850799      284.51768     -923.51733    
    241800  -3570087.8     -3570103.5      15.663386      281.15366      88.460599    
    241900  -3570087.5     -3570104.2      16.736511      300.41597      141.07071    
    242000  -3570087.1     -3570102.9      15.839241      284.3102       862.35264    
    242100  -3570086.8     -3570103.2      16.456974      295.39835     -996.87173    
    242200  -3570086.6     -3570104.8      18.214369      326.94313      1431.6682    
    242300  -3570086.4     -3570103.2      16.825888      302.02027      175.07141    
    242400  -3570086.3     -3570103        16.740047      300.47943      142.84662    
    242500  -3570086.2     -3570103.2      17.005432      305.24304      369.64342    
    242600  -3570086.2     -3570103.8      17.676186      317.28289     -204.03686    
    242700  -3570086.2     -3570103        16.82288       301.96628      317.57952    
    242800  -3570086.2     -3570102.6      16.413942      294.62594      319.71066    
    242900  -3570086.2     -3570102.8      16.555207      297.16162     -2939.4893    
    243000  -3570086.3     -3570103.5      17.177947      308.33963      2000.458     
    243100  -3570086.4     -3570103.3      16.849194      302.4386      -1713.2237    
    243200  -3570086.5     -3570103.3      16.817099      301.86251      328.03591    
    243300  -3570086.7     -3570102.7      15.980622      286.84796      563.50455    
    243400  -3570086.8     -3570103.7      16.893483      303.23358      232.34045    
    243500  -3570087       -3570102.1      15.101596      271.06967      190.14148    
    243600  -3570087.2     -3570103.5      16.252649      291.73078      594.771      
    243700  -3570087.5     -3570103.2      15.701032      281.8294       273.39079    
    243800  -3570087.7     -3570104        16.343238      293.35683     -1539.6082    
    243900  -3570088       -3570103.8      15.807333      283.73747      1126.3074    
    244000  -3570088.2     -3570104        15.788548      283.40029     -934.44149    
    244100  -3570088.4     -3570104.8      16.338505      293.27188      1701.8318    
    244200  -3570088.6     -3570104.7      16.039895      287.9119      -2505.9312    
    244300  -3570088.8     -3570104.7      15.940291      286.12402      968.10584    
    244400  -3570088.9     -3570104        15.088042      270.82638     -1392.0333    
    244500  -3570089       -3570105        15.976067      286.7662       490.73195    
    244600  -3570089.1     -3570105.1      16.079451      288.62191     -833.80266    
    244700  -3570088.9     -3570105.3      16.341404      293.32391     -1994.6388    
    244800  -3570088.7     -3570104.4      15.681492      281.47866      2165.5519    
    244900  -3570088.3     -3570103.5      15.165149      272.21044     -882.11326    
    245000  -3570087.9     -3570104.5      16.691895      299.61512      1350.3919    
    245100  -3570087.4     -3570103.3      15.916942      285.70492     -330.38214    
    245200  -3570087.1     -3570103.3      16.232848      291.37535      1117.8881    
    245300  -3570086.8     -3570103        16.208735      290.94253      1108.4893    
    245400  -3570086.6     -3570103.1      16.473315      295.69168      1496.0571    
    245500  -3570086.5     -3570102.7      16.188991      290.58813     -830.11798    
    245600  -3570086.3     -3570103.4      17.08837       306.73176     -1289.6064    
    245700  -3570086.3     -3570103.8      17.540021      314.83877      1049.2865    
    245800  -3570086.1     -3570102.4      16.31436       292.83847      545.80203    
    245900  -3570086.1     -3570104.2      18.135431      325.52622      4.2780107    
    246000  -3570086       -3570103.6      17.574756      315.46225      65.399836    
    246100  -3570086       -3570103        17.065395      306.31935      1652.4387    
    246200  -3570085.9     -3570102.3      16.396173      294.30699     -1208.5575    
    246300  -3570086       -3570102.6      16.67096       299.23935     -666.96793    
    246400  -3570086       -3570102.3      16.338241      293.26712     -624.30999    
    246500  -3570086.1     -3570104        17.8781        320.9072       878.48126    
    246600  -3570086.2     -3570101.9      15.642118      280.77191     -1323.4623    
    246700  -3570086.4     -3570102.6      16.209808      290.96179     -900.69394    
    246800  -3570086.6     -3570103.6      16.994486      305.04655     -400.78684    
    246900  -3570086.9     -3570103.6      16.695171      299.67393     -112.56832    
    247000  -3570087.2     -3570103.3      16.123384      289.4105      -233.60749    
    247100  -3570087.4     -3570104.8      17.395701      312.24825     -1744.3196    
    247200  -3570087.8     -3570104.2      16.412934      294.60785      584.95794    
    247300  -3570088       -3570103.6      15.64222       280.77374      650.92611    
    247400  -3570088.1     -3570103.8      15.699458      281.80115     -43.776261    
    247500  -3570088.2     -3570104.9      16.64278       298.73352     -574.64139    
    247600  -3570088.3     -3570105.2      16.928474      303.86165      833.24223    
    247700  -3570088.3     -3570104.4      16.115245      289.26442     -116.10575    
    247800  -3570088.3     -3570104.3      16.039093      287.89751     -503.60673    
    247900  -3570088.2     -3570105        16.83468       302.17808      450.72761    
    248000  -3570088.1     -3570104.3      16.168977      290.22889     -1234.1306    
    248100  -3570087.9     -3570104.1      16.186197      290.53798     -1905.6816    
    248200  -3570087.6     -3570104.5      16.92164       303.73898      2259.4021    
    248300  -3570087.2     -3570103.7      16.464959      295.54168     -2917.1295    
    248400  -3570086.7     -3570103.6      16.872695      302.86043      57.556051    
    248500  -3570086.2     -3570103.3      17.107433      307.07392      2360.5813    
    248600  -3570085.9     -3570103.3      17.410386      312.51185     -2248.695     
    248700  -3570085.7     -3570103.2      17.580811      315.57093      324.2995     
    248800  -3570085.6     -3570102.8      17.173001      308.25085     -720.80495    
    248900  -3570085.5     -3570103.2      17.618764      316.25218      1528.6563    
    249000  -3570085.6     -3570102.2      16.674725      299.30692     -308.58204    
    249100  -3570085.6     -3570103.8      18.189523      326.49716      441.70782    
    249200  -3570085.8     -3570103.1      17.347673      311.38617      13.504927    
    249300  -3570085.9     -3570103.9      17.928878      321.81865      517.18375    
    249400  -3570086.1     -3570103        16.857757      302.5923      -177.25092    
    249500  -3570086.3     -3570103.7      17.335823      311.17346     -636.43193    
    249600  -3570086.5     -3570104.1      17.554598      315.10042      263.54364    
    249700  -3570086.7     -3570103.1      16.390375      294.20292      283.61699    
    249800  -3570087       -3570103.3      16.368405      293.80856      442.37161    
    249900  -3570087.1     -3570103.5      16.350341      293.48433     -1448.2031    
    250000  -3570087.3     -3570103.3      15.956552      286.41591      1573.2626    
Loop time of 4602.67 on 72 procs for 50000 steps with 432 atoms

Performance: 1.877 ns/day, 12.785 hours/ns, 10.863 timesteps/s, 4.693 katom-step/s
93.5% CPU use with 72 MPI tasks x 1 OpenMP threads

MPI task timing breakdown:
Section |  min time  |  avg time  |  max time  |%varavg| %total
---------------------------------------------------------------
Pair    | 2286.5     | 3467.6     | 4387.3     | 659.2 | 75.34
Bond    | 0.019324   | 0.033933   | 0.050874   |   4.0 |  0.00
Neigh   | 0.04181    | 0.057115   | 0.075965   |   2.9 |  0.00
Comm    | 212.96     | 1132.6     | 2313.8     |1153.4 | 24.61
Output  | 0.043404   | 0.044001   | 0.052136   |   0.5 |  0.00
Modify  | 1.8214     | 1.8943     | 2.0042     |   2.7 |  0.04
Other   |            | 0.395      |            |       |  0.01

Nlocal:              6 ave           9 max           3 min
Histogram: 3 7 0 20 0 15 14 0 10 3
Nghost:        394.875 ave         405 max         382 min
Histogram: 3 4 6 8 6 9 13 12 6 5
Neighs:              0 ave           0 max           0 min
Histogram: 72 0 0 0 0 0 0 0 0 0
FullNghs:          524 ave         794 max         267 min
Histogram: 3 7 3 17 11 4 14 1 9 3

Total # of neighbors = 37728
Ave neighs/atom = 87.333333
Ave special neighs/atom = 0
Neighbor list builds = 1600
Dangerous builds = 0
unfix npt_equ


write_restart restart.equil
System init for write_restart ...
quit
