168
Properties=species:S:1:pos:R:3:hirshfeld:R:1:forces:R:3 dipole_vector="-1.9538268764392404 13.40525197708818 -0.33659552636051276" energy=-4297934.4963752 pbc="F F F"
Zn      -0.56362067      -6.16939181      -6.21548421       0.38120720      -1.04486000       2.43945000      -1.35780000
O       -0.68460831      -4.39710571      -6.61425931      -0.41374768      -0.22323600      -0.27598400       0.87400900
Zn      -0.74224069      -0.98585908      -6.15349899       0.36773680      -0.22397100       2.14889000      -1.46230000
O       -0.58729575       0.76169397      -6.60318007      -0.45220856      -0.15461600       0.02881300       1.12171000
Zn      -0.53266710       4.33217056      -6.20465652       0.44380077      -0.74539800       0.27523500      -1.10489000
O       -0.73849385       6.08588656      -6.26092648      -0.40512784      -0.73878300       0.56709200      -0.32111500
O        0.42430553      -7.11354939      -5.20608614      -0.32854771       1.95557000      -1.46614000       1.71964000
Zn       1.84460247      -6.07513174      -4.38092251       0.34956652       0.20117200      -1.47248000      -0.89074800
O        2.00316499      -4.26450064      -4.63567802      -0.35435326       0.25247800       0.11057100       0.63480200
Zn       0.24363456      -3.64068696      -4.84219457       0.30997698      -1.10235000      -3.92011000      -0.49018500
O        0.44800702      -1.99980411      -5.34851446      -0.30831041       1.25973000       3.13986000       1.09235000
Zn       2.15949090      -0.89801274      -4.64366684       0.38948956       0.17125100      -7.22852000      -0.14848800
O        2.17072422       0.71139706      -4.75768336      -0.37258990      -0.40405200       7.07031000       0.29469900
Zn       0.43553980       1.64163426      -4.88881723       0.31702751      -0.77958500      -5.23433000      -0.69816000
O        0.58826835       3.31205154      -5.28517970      -0.30970345       1.61113000       2.65790000       0.37763200
Zn       2.19473126       4.11757287      -4.55714743       0.40529318      -0.86475700       0.25606700      -1.22079000
O        2.00344286       6.02588679      -4.58706841      -0.34417916       1.22182000      -0.53144400      -0.78949000
Zn       0.29684399       6.38583007      -4.77938625       0.35073151      -1.78244000       1.13753000      -0.40435900
O        3.38934616      -6.92877860      -3.77264393      -0.37499853      -2.55623000      -2.66249000      -0.28359500
Zn       4.69522690      -6.04969377      -3.27350268       0.38563781       3.27513000       3.87700000       0.50318000
O        5.31304056      -4.24241116      -3.30970679      -0.38546341      -1.02301000      -1.57043000       0.67503700
Zn       3.30856347      -3.70631771      -3.26675438       0.30285022       0.58621900      -2.51091000       0.38177300
O        3.58362815      -2.09084480      -3.95406690      -0.31731212      -0.54984800       2.78607000      -0.47082000
Zn       4.75302264      -0.86002572      -3.31325118       0.40877248       0.39203600       1.01231000      -0.40843900
O        4.95433790       0.92626849      -3.47453978      -0.44187693       0.71873100      -0.52013500       0.36411600
Zn       3.24102636       1.58368038      -3.13365466       0.28344211      -0.27616200      -5.21675000      -0.22685700
O        3.34476073       3.28038680      -3.37227826      -0.27866317      -0.81952800       3.15452000       0.33499600
Zn       4.85554651       4.29247798      -3.22537113       0.43365544       1.59313000      -2.14167000       0.18774600
O        4.81361529       5.97318196      -3.25423391      -0.39211725       1.73006000       2.74741000      -0.10521500
Zn       3.10862610       6.44587733      -3.24451137       0.38716434       0.04502270       1.31185000       1.27436000
Zn      -3.18810404      -6.08721571      -4.70170058       0.38457025      -1.80513000       2.65031000      -0.07017740
O       -3.97186650      -4.35019758      -4.77964403      -0.42920312       1.22813000      -1.30287000       1.03986000
Zn      -3.29039121      -1.04430667      -4.74415678       0.46653332      -1.45660000       3.11216000      -0.95215300
O       -3.46449813       0.92358768      -4.60918886      -0.42205795      -3.73093000      -3.74971000      -4.38377000
Zn      -3.30930993       4.13088995      -4.54255278       0.46607382      -0.38161200       0.14598500      -0.11240300
O       -3.46831194       5.92782113      -4.38954721      -0.40224391      -2.43816000      -0.62036500      -1.27525000
O       -1.92845263      -7.09402437      -4.07284153      -0.33909579      -0.65809300      -1.34246000      -0.11859700
Zn      -0.50729694      -6.38659318      -3.22536672       0.33377145      -1.51794000       0.01674130      -1.71573000
O       -0.80551935      -4.42754941      -2.89477574      -0.33781006      -0.60363700      -0.50224600      -1.59305000
Zn      -2.54253106      -3.74358329      -3.20174649       0.31902054      -1.57578000      -5.25375000      -0.07681260
O       -2.41142973      -2.15670405      -3.73172199      -0.31209923       2.15917000       4.79298000       0.09244680
Zn      -0.67956516      -0.97121568      -3.40336060       0.35308684      -0.32275300      -4.81066000      -0.63940800
O       -0.48969664       0.69270325      -3.10804058      -0.34327111      -0.18328100       4.87101000       0.83956100
Zn      -2.57455570       1.46232947      -3.35003051       0.30363026       3.54066000       0.89945200       3.88112000
O       -1.83935357       3.15114624      -3.89753329      -0.31637470      -3.79464000      -2.02514000      -1.82648000
Zn      -0.63358563       4.06729725      -3.22472355       0.32232784       4.30427000       2.53050000       2.50108000
O       -0.53064979       6.67237157      -2.91170955      -0.33280039       0.57018600       0.41513000      -2.04243000
Zn      -2.15491250       6.46268468      -3.44184304       0.36284948      -0.97567500       0.57193900       0.18411500
O        0.69758223      -6.90188253      -2.11076715      -0.33413124      -2.63450000      -2.10783000       1.26773000
Zn       2.14578498      -6.38089700      -1.49482409       0.34582504       4.81510000       0.12915300       1.76706000
O        2.37130980      -4.44263893      -1.49254488      -0.32314736      -1.89270000      -0.17520500      -2.78569000
Zn       0.48571280      -3.70818008      -1.87216402       0.32826406       1.09914000      -1.33599000       1.69644000
O        0.54863815      -1.86010403      -1.97481034      -0.32511315      -2.09638000       0.24212000       0.01046180
Zn       1.99689328      -0.99879989      -1.53888978       0.36020558       1.91824000      -2.31785000       0.57273800
O        2.21957665       0.69036722      -1.51884051      -0.32814760       0.28052700       4.54329000      -0.15118400
Zn       0.34623204       1.63888779      -1.55471140       0.32902559       0.16692700      -0.93683100       0.10989700
O        0.33677912       3.68740456      -1.44096734      -0.32649504       1.20617000      -0.36050900      -1.76892000
Zn       2.36448958       4.29183750      -1.70034558       0.32134072      -0.48151900      -0.51270100       0.60063600
O        2.07063284       6.52168992      -1.36747692      -0.31620344       2.95537000      -0.23342100      -2.39820000
Zn       0.39375818       6.36443176      -1.44859063       0.30783142      -3.44023000       0.57957000       2.19226000
O        3.34203890      -7.07588071      -0.10967846      -0.36649576      -5.08615000      -3.11848000      -0.35292100
Zn       4.68638082      -6.21459542       0.14432617       0.33917390       4.77341000       4.93887000       0.44626400
O        5.27916834      -4.42914399      -0.00974687      -0.39223111      -0.91949800      -0.98262400       0.23777200
Zn       3.17001116      -3.70669525      -0.13791344       0.30271082       2.23142000      -3.34651000       2.26069000
O        3.41030236      -2.04302030       0.15955012      -0.32958063      -2.39607000       3.34420000       1.11428000
Zn       4.84120491      -1.08495167      -0.08202848       0.38788079       1.66357000       2.22486000      -0.13419700
O        5.17812769       0.67586703      -0.09476213      -0.45007718      -0.87852900       0.39528200      -0.13446600
Zn       3.28140041       1.58862357      -0.07224745       0.30106431       1.97201000      -3.03597000      -0.07013080
O        3.08628092       3.39023728       0.20134502      -0.30582090       0.10036700       1.55256000      -0.94907100
Zn       4.75753922       4.34537701      -0.04131273       0.37473902       1.06746000       0.75904600      -0.04198710
O        4.96110391       6.19174309      -0.20710929      -0.37035838       2.38902000      -1.57128000       0.09020810
Zn       3.24905687       6.38571349      -0.05395081       0.31701667      -0.35163300       1.67555000       2.36545000
O       -4.69450715      -7.14027694      -2.10280428      -0.35269230      -0.52168300      -0.40846500      -0.72832800
Zn      -3.35734880      -6.23997047      -1.38823554       0.34319861       1.21934000      -3.92083000       0.73938300
O       -3.64697646      -4.50361886      -1.51074508      -0.28892278       7.23163000      -2.10905000       0.97885100
Zn      -4.89604950      -3.56468106      -1.65250374       0.41616792      -7.82211000       7.86706000      -1.24572000
O       -5.29962775      -1.65277501      -1.72749058      -0.45661818       1.00876000      -1.94683000      -0.24857400
Zn      -3.42559283      -1.14436529      -1.50553816       0.30378820      -1.09177000      -2.83316000      -0.28735000
O       -3.72056300       0.57656825      -1.17831979      -0.30279960       1.57658000       1.08767000      -0.43577200
Zn      -5.13897248       1.52944101      -1.54847021       0.47031668      -1.91961000       1.76707000      -1.07956000
O       -4.79250926       3.33301450      -2.03947250      -0.41268618      -7.83550000      -6.79199000      -3.61758000
Zn      -3.66855881       4.28020855      -1.55334211       0.30504642       6.40858000       6.16080000       2.40441000
O       -3.53150361       6.32204577      -1.54387639      -0.31073881      15.02300000      -3.85691000      -0.82614300
Zn      -4.98139056       6.62825206      -1.58870844       0.26679842     -16.70220000       3.86133000      -0.37920200
O       -1.98018551      -6.66540920       0.00023611      -0.34593205      -8.79328000      -0.67693100       0.14479700
Zn      -0.37598735      -6.46206980      -0.07393203       0.38964326       7.01488000       0.51150000       0.24044100
O       -0.56747612      -4.39410096       0.11600363      -0.34336849       1.24780000       0.09255890      -1.22123000
Zn      -2.28677163      -3.76789017      -0.06743569       0.35775243      -0.76327600      -1.07615000       0.15946000
O       -2.11847799      -1.94253851      -0.34399879      -0.35115193      -0.13813100       1.39407000       0.28790300
Zn      -0.52703746      -0.93548948      -0.05011393       0.36403905      -0.25126000      -2.11343000      -0.07801220
O       -0.52963970       0.84887760       0.17533269      -0.35375042      -0.29361500       2.51259000      -0.60702300
Zn      -2.72322562       1.70755759      -0.14592521       0.35822336       1.51544000      -0.66108900       1.31800000
O       -2.47193340       3.60283641      -0.21492793      -0.32428673       0.65912700       0.13252000       0.96632300
Zn      -0.66368593       4.15445169       0.03033601       0.30929691       0.02902570       0.42319800       1.59910000
O       -0.83849091       6.98369711       0.03393906      -0.36478068       5.63433000       0.06984180       0.46264300
Zn      -2.43573794       6.57087737      -0.12157473       0.32885759      -2.74198000       0.01183300       0.75439300
O        0.60625523      -6.71983877       1.74118829      -0.35253813      -8.32107000      -2.76264000      -0.95686500
Zn       2.13418325      -6.28263824       1.71565161       0.33189581       8.09039000      -0.28668000      -0.72907100
O        2.30886521      -4.48329019       1.89803773      -0.33701504      -0.64855200       1.95182000      -1.96950000
Zn       0.41989244      -3.70364659       1.50041890       0.32065137       0.52967000      -0.83655700       1.41283000
O        0.43747676      -1.83934696       2.02846445      -0.33207361       0.46619400       0.17127400      -1.36497000
Zn       2.10762523      -0.96499941       1.69736416       0.35675800       0.14482400      -4.04951000       0.29183600
O        2.35500525       0.70921788       1.47903506      -0.33075024      -0.50128100       4.48955000       0.22422500
Zn       0.41181861       1.63974073       1.76920305       0.34184593       0.25825900      -0.85737800      -0.23617500
O        0.37939745       3.71354306       1.92325927      -0.31877235       1.49164000      -1.13266000      -2.76243000
Zn       2.26197456       4.11492516       1.72154635       0.33675881      -0.05025800       0.52675400       0.64751500
O        2.15905395       6.72872872       1.54849105      -0.34607205       3.14510000      -0.75909400       0.09527380
Zn       0.45996518       6.59293479       1.66042138       0.32296094      -2.45127000       0.83148600      -1.34499000
O        3.49808210      -7.11579884       3.75742360      -0.36044632      -2.01278000      -2.14452000       0.04927470
Zn       4.68329654      -6.12617484       3.06718688       0.35798681       1.94766000       2.22713000      -0.22074500
O        5.18884681      -4.42863571       3.34099479      -0.37661519      -0.29286000       0.04519370      -0.71047800
Zn       3.19314252      -3.69205971       3.26322236       0.29347218       1.30885000      -3.25982000       0.82826200
O        3.41041917      -2.08927999       3.81576340      -0.31934648      -0.04113260       4.39789000       0.52756800
Zn       4.69939672      -0.94435865       3.13277841       0.43160247       0.03595470       1.10852000       0.79610500
O        4.97357174       0.84308810       3.38554865      -0.44845338       0.00512384      -0.25516200      -0.51161400
Zn       3.20698441       1.60099649       3.18897822       0.28722816       0.82423100      -3.62411000       0.36708700
O        3.16237533       3.35390218       3.57070281      -0.29063426       0.42395200       1.13241000      -1.12441000
Zn       4.76704601       4.27670688       3.20980780       0.43860590       0.98416200      -6.18019000       0.55930600
O        4.73897997       5.86952785       3.07646509      -0.38158135       1.41378000       6.27401000      -0.79818700
Zn       3.05323988       6.38346436       3.38432339       0.37375355       1.27490000       1.56360000      -2.29271000
O       -5.01917093      -6.87298751       2.04983982      -0.34769057       0.39266000      -0.09645670       0.12891200
Zn      -3.40139886      -6.22678356       1.41664182       0.35874128       1.46482000      -7.05182000      -0.75706000
O       -3.79667993      -4.62158629       1.61264256      -0.30059949       5.54503000       1.61660000       0.69448600
Zn      -5.03808445      -3.63432698       1.44816495       0.41775992      -5.69629000       6.89047000       0.24923100
O       -5.26601536      -1.76733028       1.81543551      -0.46180967       0.54957700      -1.49411000      -0.53802700
Zn      -3.44117474      -0.97160798       1.87316322       0.33740890      -0.90869100      -7.04739000       0.53750500
O       -3.69112535       0.61063080       1.54747487      -0.31423023       2.41739000       5.37080000      -1.34697000
Zn      -5.00694633       1.69993453       1.62229750       0.44539138      -2.43732000       2.72465000       0.32185100
O       -4.87620140       3.64545460       1.63482518      -0.39939516     -19.49920000     -10.64500000       3.81326000
Zn      -3.60820575       4.26752407       1.41732286       0.27868393      18.74510000       9.25166000      -3.40814000
O       -3.67628644       6.38806975       1.35257853      -0.32456106       8.41758000      -0.81193600      -1.58960000
Zn      -5.18977499       6.46384247       1.83091924       0.26529209      -8.92700000       0.81205600       2.08950000
O       -2.14699040      -7.21960211       3.67664641      -0.34989255       0.00214136      -0.06871360      -0.51010000
Zn      -0.55232322      -6.15571567       3.18722547       0.31539930       0.10286100      -4.53220000       0.11289700
O       -0.67334280      -4.40814456       3.19604356      -0.33451538       0.29212600       3.87713000       0.03588050
Zn      -2.53316219      -3.85938591       3.29744985       0.31114348       0.45119400      -2.04401000      -0.00702802
O       -2.76956528      -2.09485626       3.37602667      -0.29544638       2.30919000       0.74905000      -2.95519000
Zn      -0.58982049      -0.98817440       3.32364530       0.35896627      -0.38575000      -2.75921000       0.71602600
O       -0.69774102       0.75265395       3.14042786      -0.33333170       0.64065200       2.67198000      -0.05860370
Zn      -2.45973936       1.53039387       3.38046807       0.28352495       0.30815200      -1.38330000      -1.22671000
O       -2.06625329       3.24055569       3.76623420      -0.32026051      -0.79002300       0.40575800       0.59868000
Zn      -0.75631813       4.24506030       3.14329546       0.31344480      -0.11683100       1.97587000       1.25044000
O       -0.78082545       6.67602998       2.93003783      -0.34587649       0.50252700      -0.49815400       1.91539000
Zn      -2.51682536       6.26818924       3.19721409       0.31428528       1.59661000       2.40762000      -5.49736000
O        0.35559534      -6.93945241       4.96964962      -0.33725509       3.15768000      -2.05204000      -3.22661000
Zn       2.12606635      -6.08737504       4.48550167       0.36660963      -0.40529100      -2.78293000       0.50950900
O        2.28617316      -4.47131172       5.14798762      -0.34803435       0.05165030       1.79070000      -0.38525000
Zn       0.50195041      -3.80452787       4.86809400       0.31319111      -0.84453600      -4.53508000       0.10507600
O        0.58188620      -2.16724027       5.34242613      -0.28966277       0.38802400       3.95142000      -0.38083800
Zn       1.95547406      -0.95956179       4.73147258       0.37473230       0.13738100      -5.55300000       0.30583100
O        2.23613131       0.65617157       4.70837174      -0.36563482       0.26975400       5.66309000      -0.74260600
Zn       0.46291369       1.53163555       5.02640386       0.30395589      -0.16207600      -5.09552000       0.25858600
O        0.60508372       3.21713194       5.19739230      -0.30383972      -0.07027240       3.51124000       0.07819300
Zn       2.00635407       4.24925126       4.62274538       0.39798391      -0.20470900       1.05492000       1.06732000
O        1.87183564       6.19359121       4.63192671      -0.33639822       0.74022600      -0.83018500       1.28194000
Zn       0.17691646       6.46372251       4.96949236       0.36817394      -1.75616000       1.93932000      -1.58035000
Zn      -3.26765880      -6.05698928       4.40710612       0.35984066      -0.56023300       0.08378330       0.27030000
O       -3.59492626      -4.32471364       4.75490504      -0.40704547      -0.68659000      -0.53877400       0.66840300
Zn      -3.28982438      -0.97238347       4.50637248       0.42309738      -1.56409000       3.10518000       3.04320000
O       -3.43801496       0.81734169       4.66567257      -0.43909850      -1.67876000      -1.05232000       1.67942000
Zn      -3.39491265       4.18865303       4.56632418       0.44466542      -1.02879000      -1.40702000       0.77537500
O       -3.20930700       5.90764187       4.60856952      -0.38771323      -3.66683000       0.29268800       5.90990000
Zn      -0.69628485      -6.14710486       5.97064818       0.38887629      -2.02598000       3.39936000       3.25723000
O       -0.58109228      -4.42640163       6.70194060      -0.39657366      -0.32921500      -0.84811700      -1.12927000
Zn      -0.52751815      -1.07366845       6.20479513       0.41425329      -0.29827500       1.93924000       1.21611000
O       -0.28138385       0.70726110       6.57222810      -0.44137912      -0.79174300      -0.86483100      -0.16106000
Zn      -0.42684250       4.34026077       6.13012155       0.44491090      -0.84581300       0.75364700       1.35748000
O       -0.57440818       6.10922685       6.49720449      -0.38759859      -1.33897000      -0.95845800       1.79111000
168
Properties=species:S:1:pos:R:3:hirshfeld:R:1:forces:R:3 dipole_vector="4.454218083270212 3.2461271831898997 4.132359778819397" energy=-4297933.94297406 pbc="F F F"
Zn      11.26465766     -21.22809346      -3.63424802       0.41420478      -0.82927600       0.02708430      -0.66247300
O        8.69653239     -18.36420369       6.12419375      -0.35261667      -0.12196200      -1.60122000      -0.27534800
Zn       6.84486366     -22.75147677      -0.49542812       0.30649741       4.11659000      -2.15431000       2.83831000
O        9.48095247     -21.80380097      -3.98734113      -0.36582935       0.50878600      -1.22284000       0.25083900
Zn       5.26131577     -18.77033077      -6.08004397       0.35741883       4.43601000       2.80766000       2.17559000
O        5.91879714     -18.60066752       5.03665241      -0.33817159       4.91060000       2.79732000       3.87545000
O        4.28228988     -19.87009129      -6.78339705      -0.38780011      -3.16536000      -2.35836000      -3.04230000
Zn       6.37113807     -13.26705638      -3.77359470       0.35327755      -4.74759000      -1.97969000      -4.00423000
O       12.19260152     -19.85084385       0.34296561      -0.39851330      -1.81800000       0.81450100      -0.41769300
Zn       2.21803202     -18.70142803      -6.37772692       0.40910999       1.24686000      -1.85371000       0.47300700
O        7.03467452     -18.58670067      -5.51857714      -0.38008783      -3.15031000      -3.69828000      -6.65159000
Zn       1.94382717     -15.59348694      -0.80435389       0.38392021       2.95901000       4.12839000       2.17219000
O       12.48007666      -9.37892480      -0.93013804      -0.41813411       0.23072400      -0.66283700       1.00781000
Zn       4.57743050     -18.94887151       4.12587328       0.35519731      -4.59855000      -3.63539000      -3.77544000
O        2.34675867     -14.92719171      -2.71352894      -0.36575131      -0.76527200      -0.89059400      -0.60636900
Zn       8.73636113     -22.03407434       0.67320397       0.36641197       1.17806000       1.35527000       3.05709000
O       15.45300867     -16.90792377      -1.60435430      -0.36093777       1.74993000       0.55732600      -0.15725600
Zn       9.21805463     -14.38435322      -3.42322507       0.46505643      -0.73479700      -1.19132000       1.80571000
O        4.90738925     -20.20622252       2.24850187      -0.41941288      -0.52494700       1.73063000       1.67138000
Zn       9.54685595     -21.60585804       3.73482182       0.38623333      -9.95120000      -4.62065000      -3.17802000
O       14.82525477     -20.01576967      -1.69517350      -0.36058265       3.79758000       3.71936000       1.79913000
Zn       9.52592606     -23.60603671      -2.71876187       0.37592528      -8.14277000       6.02543000       4.92167000
O       15.48742898     -11.42439426      -0.88426537      -0.33745196      -1.56038000       2.85122000      -0.34108000
Zn      12.28427360     -14.57288200       5.35842487       0.38816831      -4.84338000       4.93815000       1.33663000
O        8.75229430     -18.32870796      -0.84161271      -0.39115658       0.56755600      -0.10309600      -0.00844331
Zn      13.19387934      -9.60219455       1.86966790       0.41203081      -1.97115000       3.35899000      -2.35779000
O        9.74145505     -12.10674359       7.95290783      -0.40165239       4.12138000      -0.59075900      -0.65179500
Zn      14.36620004     -11.91092028       5.06597729       0.37112496      -3.47318000       0.87607400       3.34878000
O       17.29101148     -12.90341201       1.02381443      -0.39267816       1.09894000      -1.41477000       1.31068000
Zn      14.47404016     -18.32775315      -2.40974612       0.34560776      -0.30050800       0.24123200      -0.40771400
Zn       6.90751116     -18.58285376      -1.15885315       0.40279846       0.28525700      -0.47188000       0.21860100
O       10.02321262     -10.35293564       5.75673991      -0.34121377       5.18410000      -0.85661000       0.57455100
Zn       4.65895261     -11.11869490       3.08112568       0.39627640       0.45707600      -0.11104100       2.81557000
O        3.25697258     -18.55376153       5.41352528      -0.44241345      -0.30324700       0.89323500      -1.22860000
Zn      14.44293470     -19.77246280       2.79653700       0.38581998       0.09287220      -0.46784800      -1.35803000
O       13.09065596     -11.96616008      -2.59786423      -0.37407848      -0.60290800      -0.61620500      -1.69599000
O       13.85473540     -18.93871088       4.43361722      -0.34776756       2.34415000      -0.52131200      -0.99544800
Zn      11.59159433     -13.09786383      -3.00649036       0.44074105       1.70070000       2.16349000       1.22425000
O        6.16570798     -16.28208756       1.64498916      -0.37683660       3.54930000       2.11004000      -0.14682500
Zn       3.59109363     -16.84613194       4.43886305       0.30441583      -5.22189000      -5.46641000      -2.73836000
O        2.22048600     -20.36972596      -5.52116590      -0.39462911      -0.18318800      -1.38099000       1.01633000
Zn       6.81541332     -14.37238144       7.44710504       0.40984567      -2.03326000      11.59010000       1.12668000
O        2.36263610     -18.89697442      -2.60861560      -0.37177946      -0.30188300       1.50749000       2.11346000
Zn      12.30995240     -15.13498864       0.44618064       0.40325264       0.22518700       0.99743400      -0.50609700
O        8.01540017     -19.37987542       2.28271777      -0.43122113       0.27291500       0.17342900      -0.60664100
Zn       5.92453921     -16.97954563       6.12624008       0.45348491      -1.56618000      -0.41747800      -1.55056000
O        6.33134529      -8.73697448       1.46321110      -0.36077398      -4.46225000       0.61487600      -1.66849000
Zn       6.56910105      -8.91184875       3.17076547       0.44037343       1.04363000      -0.51004700       3.23451000
O        7.03633869     -15.90318752       7.20158016      -0.31591965      -0.58428800      -8.22455000      -1.00751000
Zn      13.14965974     -17.32694591       4.90244763       0.39248515       3.47794000       0.50463300       0.62842600
O        6.56337413     -10.41054565      -0.97139197      -0.37037039       1.61572000      -1.07555000      -2.37354000
Zn      10.05328041      -9.47822463       2.86003047       0.31920244      -2.26755000      -0.35261000      -2.53762000
O        5.99349135     -14.76538801      -5.14043502      -0.43824684       4.45321000       4.65943000       2.26818000
Zn      14.83695852     -12.54918068      -2.05833914       0.39079793      -1.29184000      -4.70706000      -1.98555000
O        4.46790226     -15.77722753       5.26508011      -0.36539039       4.55300000       5.19606000       4.62957000
Zn       3.11108582     -13.42811762      -2.01224120       0.36130954       0.04353730       0.65223200      -0.99378400
O       13.29761369     -17.23653832      -3.34600349      -0.40605193      -0.52582200      -1.00114000      -0.31554100
Zn       7.79785539     -17.63261111       1.71299310       0.36825771      -0.02384950       0.24118100       0.04534440
O       13.82718337     -14.46277229      -1.48715252      -0.43074420       0.90735700       0.76307400       1.10726000
Zn       4.85725344     -17.49259158       1.17332964       0.35552386      -1.00411000      -0.15502200       0.73992600
O        6.76541391     -22.76887154       1.41280084      -0.34915339       2.66217000      -1.78939000       0.60110300
Zn      13.99780517     -21.41546823      -1.94554085       0.34443860       0.03225640       0.27537200      -3.94473000
O       15.73957555     -18.98203780       1.12277326      -0.36997223      -0.31184000       2.13771000       2.33819000
Zn      16.90683995     -16.60619983       2.57594511       0.33479278       0.13528200      -0.79241500      -0.91845900
O        9.76518159     -16.96707372       1.50004019      -0.35518305      -3.48528000       3.25245000       3.66472000
Zn       9.50479561     -13.52141379       3.42532506       0.38858211       0.69358600       0.57121600      -0.28010800
O       12.36385727     -12.41871185       6.06830631      -0.40746611      12.22060000      -7.22115000      -5.54928000
Zn      12.53346053     -21.55978323       0.14399927       0.40382077       0.77368700      -2.10078000       0.40893400
O        9.76989080     -10.87165224      -1.98070098      -0.41211132       1.27456000      -0.13475300       0.42983300
Zn      10.35284929     -17.97421634       0.32714026       0.43885265       1.06605000      -3.98335000      -4.31368000
O        7.69915951     -13.12479915      -2.84021576      -0.38394335       6.66604000      -0.10521200       3.01208000
Zn       8.19482157     -11.36368654      -1.35544120       0.38531396      -1.23411000      -0.29655300      -0.99593300
O       13.20186143     -22.73956676      -1.40881057      -0.33673229      -1.53829000      -2.59187000       2.75526000
Zn       2.83229651     -20.04126059      -3.80571086       0.36264142      -0.37910200      -0.84305300      -1.82123000
O        5.51685087     -10.05926055       4.49719156      -0.34803361      -0.99358900       2.04696000      -3.72419000