64
Properties=species:S:1:pos:R:3:hirshfeld:R:1:forces:R:3 dipole_vector="0.8834570198572054 -10.34118833825329 1.957390869524129e-08" energy=-1637317.42609292 pbc="F F F"
O        4.69024913       4.55357614      -0.00000000      -0.38561770      -0.71270300      -0.93163300      -0.00000005
Zn       3.75219913       3.74650614       1.62475000       0.39098866      -0.73731000       2.14584000      -2.11280000
O        3.75219913       1.95012614       1.62475000      -0.39345608       0.38988300      -2.00093000      -0.24789600
Zn       4.69024913       1.14305614      -0.00000000       0.39473903      -1.61788000       2.11889000       0.00000003
O        4.69024913      -0.65332386      -0.00000000      -0.39180552      -0.21416000      -1.92944000      -0.00000001
Zn       3.75219913      -1.46039386       1.62475000       0.40732921      -0.11364000       1.70017000      -1.42349000
O        3.75219913      -3.25677386       1.62475000      -0.38375540       0.05997670      -2.48375000      -0.42075100
Zn       4.69024913      -4.06384386      -0.00000000       0.35601805      -1.35287000       1.13177000      -0.00000001
Zn       3.75219913       3.74650614      -1.62475000       0.39098866      -0.73731000       2.14584000       2.11280000
O        3.75219913       1.95012614      -1.62475000      -0.39345608       0.38988300      -2.00093000       0.24789600
Zn       3.75219913      -1.46039386      -1.62475000       0.40732921      -0.11364000       1.70017000       1.42349000
O        3.75219913      -3.25677386      -1.62475000      -0.38375540       0.05997670      -2.48375000       0.42075100
O        1.87610013       4.55357614       1.62475000      -0.34151028       0.62703700      -1.14883000       1.00769000
Zn       0.93805013       3.74650614       3.24950000       0.38241717      -1.41804000       2.22155000      -1.62903000
O        0.93805013       1.95012614       3.24950000      -0.39378972      -0.57559400      -2.00476000       0.15487700
Zn       1.87610013       1.14305614       1.62475000       0.31904520       0.29763000       3.24890000       0.50082600
O        1.87610013      -0.65332386       1.62475000      -0.31540420       0.43701900      -2.70350000       0.57514300
Zn       0.93805013      -1.46039386       3.24950000       0.40795328      -1.34791000       1.79126000      -0.77489300
O        0.93805013      -3.25677386       3.24950000      -0.38742662      -0.45195500      -2.53149000      -0.29307700
Zn       1.87610013      -4.06384386       1.62475000       0.34017748       0.47994900       1.43600000       0.72294300
O        1.87610013       4.55357614      -1.62475000      -0.34151028       0.62703700      -1.14883000      -1.00769000
Zn       0.93805013       3.74650614      -0.00000000       0.33996758      -0.04875790       3.72934000       0.00000020
O        0.93805013       1.95012614      -0.00000000      -0.32166980      -0.25710500      -2.87819000      -0.00000017
Zn       1.87610013       1.14305614      -1.62475000       0.31904520       0.29763000       3.24890000      -0.50082600
O        1.87610013      -0.65332386      -1.62475000      -0.31540420       0.43701900      -2.70350000      -0.57514300
Zn       0.93805013      -1.46039386      -0.00000000       0.34813700      -0.25170300       2.79552000       0.00000003
O        0.93805013      -3.25677386      -0.00000000      -0.31961178      -0.22901900      -3.49380000      -0.00000004
Zn       1.87610013      -4.06384386      -1.62475000       0.34017748       0.47994900       1.43600000      -0.72294300
Zn       0.93805013       3.74650614      -3.24950000       0.38241717      -1.41804000       2.22155000       1.62903000
O        0.93805013       1.95012614      -3.24950000      -0.39378972      -0.57559400      -2.00476000      -0.15487700
Zn       0.93805013      -1.46039386      -3.24950000       0.40795328      -1.34791000       1.79126000       0.77489300
O        0.93805013      -3.25677386      -3.24950000      -0.38742662      -0.45195500      -2.53149000       0.29307700
O       -0.93804987       4.55357614       3.24950000      -0.34406084       1.04856000      -1.16804000      -0.50720300
Zn      -0.93804987       1.14305614       3.24950000       0.40355983       1.30603000       1.63489000      -0.88018700
O       -0.93804987      -0.65332386       3.24950000      -0.39760723       0.66482100      -1.83444000       0.06941960
Zn      -0.93804987      -4.06384386       3.24950000       0.28695293       0.62108000       0.58572800      -0.40767300
O       -0.93804987       4.55357614      -0.00000000      -0.29608051      -0.03828670      -1.46606000      -0.00000026
Zn      -1.87609987       3.74650614       1.62475000       0.32274584      -0.26087000       4.42525000       0.41542300
O       -1.87609987       1.95012614       1.62475000      -0.31423653      -0.46053400      -2.76838000       0.68881100
Zn      -0.93804987       1.14305614      -0.00000000       0.34521642       0.21102800       2.49382000       0.00000008
O       -0.93804987      -0.65332386      -0.00000000      -0.33296409       0.38069300      -2.60648000      -0.00000007
Zn      -1.87609987      -1.46039386       1.62475000       0.31569483      -0.40612100       3.16629000       0.58115600
O       -1.87609987      -3.25677386       1.62475000      -0.31815454       0.01968470      -3.11478000      -0.04216970
Zn      -0.93804987      -4.06384386      -0.00000000       0.32877940      -0.08670190       1.12898000       0.00000004
O       -0.93804987       4.55357614      -3.24950000      -0.34406084       1.04856000      -1.16804000       0.50720300
Zn      -1.87609987       3.74650614      -1.62475000       0.32274584      -0.26087000       4.42525000      -0.41542300
O       -1.87609987       1.95012614      -1.62475000      -0.31423653      -0.46053400      -2.76838000      -0.68881200
Zn      -0.93804987       1.14305614      -3.24950000       0.40355983       1.30603000       1.63489000       0.88018700
O       -0.93804987      -0.65332386      -3.24950000      -0.39760723       0.66482100      -1.83444000      -0.06941960
Zn      -1.87609987      -1.46039386      -1.62475000       0.31569483      -0.40612100       3.16629000      -0.58115600
O       -1.87609987      -3.25677386      -1.62475000      -0.31815454       0.01968470      -3.11478000       0.04216970
Zn      -0.93804987      -4.06384386      -3.24950000       0.28695293       0.62108000       0.58572800       0.40767300
O       -3.75219988       4.55357614       1.62475000      -0.34116733      -0.13616300      -1.22580000      -1.24028000
Zn      -3.75219988       1.14305614       1.62475000       0.40974117       0.22776800       1.47281000      -1.48811000
O       -3.75219988      -0.65332386       1.62475000      -0.39950642      -0.34090200      -1.76781000      -0.33229500
Zn      -3.75219988      -4.06384386       1.62475000       0.30106596       0.07997620       0.61839900      -0.71285900
O       -3.75219988       4.55357614      -1.62475000      -0.34116733      -0.13616300      -1.22580000       1.24028000
Zn      -4.69024887       3.74650614      -0.00000000       0.38407190       2.17569000       2.52877000       0.00000022
O       -4.69024887       1.95012614      -0.00000000      -0.39092976       0.09603940      -1.94467000      -0.00000013
Zn      -3.75219988       1.14305614      -1.62475000       0.40974117       0.22776800       1.47281000       1.48811000
O       -3.75219988      -0.65332386      -1.62475000      -0.39950642      -0.34090200      -1.76781000       0.33229500
Zn      -4.69024887      -1.46039386      -0.00000000       0.40219460       1.55988000       2.15269000       0.00000004
O       -4.69024887      -3.25677386      -0.00000000      -0.38293100       0.34630100      -2.58183000      -0.00000002
Zn      -3.75219988      -4.06384386      -1.62475000       0.30106596       0.07997610       0.61839900       0.71285900
72
Properties=species:S:1:pos:R:3:hirshfeld:R:1:forces:R:3 dipole_vector="1.7044493087639024e-07 -0.0009568998402223378 -13.118781340897451" energy=-1841979.23147663 pbc="F F F"
O       -1.62475000       4.69024905       3.25185114      -0.34975461      -0.68495600      -0.98925700      -1.27300000
Zn      -3.24950000       3.75219905       2.44478114       0.38296043       2.06019000      -0.67655900       2.41330000
O       -3.24950000       3.75219905       0.64840114      -0.39521952       0.51282100       0.42816800      -2.31979000
Zn      -1.62475000       4.69024905      -0.15866886       0.41256615      -0.76999000      -1.45249000       2.12497000
O       -1.62475000       4.69024905      -1.95504886      -0.38382781      -0.26065900      -0.54006400      -2.77901000
Zn      -3.24950000       3.75219905      -2.76211886       0.31192602       0.83920400      -0.08597480       0.76249100
O       -3.24950000       1.87610005       3.25185114      -0.34113083      -1.02407000       0.59123800      -1.18528000
Zn      -4.87425000       0.93805005       2.44478114       0.38297376       1.61642000      -1.44573000       2.41324000
O       -4.87425000       0.93805005       0.64840114      -0.39520317      -0.11511400      -0.65843800      -2.31999000
Zn      -3.24950000       1.87610005      -0.15866886       0.31474487      -0.61378400       0.35438400       3.43504000
O       -3.24950000       1.87610005      -1.95504886      -0.31368171      -0.05579420       0.03239730      -3.23363000
Zn      -4.87425000       0.93805005      -2.76211886       0.31191579       0.49691900      -0.68009400       0.76389400
O       -4.87425000      -0.93804995       3.25185114      -0.34975653       0.51418000       1.08760000      -1.27369000
Zn      -4.87425000      -0.93804995      -0.15866886       0.41252116       0.87165100       1.39109000       2.12877000
O       -4.87425000      -0.93804995      -1.95504886      -0.38383790       0.33732100       0.49618300      -2.77907000
O        1.62475000       4.69024905       3.25185114      -0.34975460       0.68495500      -0.98925700      -1.27300000
Zn       0.00000000       3.75219905       2.44478114       0.32119952       0.00000186       0.48871400       4.68547000
O        0.00000000       3.75219905       0.64840114      -0.31300315       0.00000020       0.85360400      -3.19064000
Zn       1.62475000       4.69024905      -0.15866886       0.41256615       0.76999100      -1.45249000       2.12497000
O        1.62475000       4.69024905      -1.95504886      -0.38382781       0.26065800      -0.54006400      -2.77901000
Zn       0.00000000       3.75219905      -2.76211886       0.36229624       0.00000014       0.87704200       1.67912000
O        0.00000000       1.87610005       3.25185114      -0.30096520      -0.00000101      -0.04111960      -1.52443000
Zn      -1.62475000       0.93805005       2.44478114       0.33242882       0.05290760      -0.03033830       4.15225000
O       -1.62475000       0.93805005       0.64840114      -0.32828528       0.21125700      -0.12265700      -3.29187000
Zn       0.00000000       1.87610005      -0.15866886       0.34037390       0.00000027      -0.16017900       3.23998000
O        0.00000000       1.87610005      -1.95504886      -0.32028775       0.00000086      -0.14545300      -3.55836000
Zn      -1.62475000       0.93805005      -2.76211886       0.28636074      -0.02969010       0.01841400       0.82424300
O       -1.62475000      -0.93804995       3.25185114      -0.30097051       0.03493020       0.02056890      -1.52447000
Zn      -3.24950000      -1.87609995       2.44478114       0.32121734      -0.42245100      -0.24392300       4.68546000
O       -3.24950000      -1.87609995       0.64840114      -0.31298925      -0.73948700      -0.42727500      -3.19068000
Zn      -1.62475000      -0.93804995      -0.15866886       0.34037496       0.13923100       0.08050670       3.24007000
O       -1.62475000      -0.93804995      -1.95504886      -0.32029030       0.12640600       0.07319480      -3.55857000
Zn      -3.24950000      -1.87609995      -2.76211886       0.36225362      -0.75766100      -0.43575900       1.67933000
O       -3.24950000      -3.75219895       3.25185114      -0.34975901       1.19891000      -0.09812890      -1.27344000
Zn      -3.24950000      -3.75219895      -0.15866886       0.41253291       1.64106000       0.05890620       2.12868000
O       -3.24950000      -3.75219895      -1.95504886      -0.38384407       0.59789200       0.04450130      -2.77895000
Zn       3.24950000       3.75219905       2.44478114       0.38296043      -2.06019000      -0.67655900       2.41330000
O        3.24950000       3.75219905       0.64840114      -0.39521952      -0.51282200       0.42816900      -2.31979000
Zn       3.24950000       3.75219905      -2.76211886       0.31192602      -0.83920400      -0.08597500       0.76249100
O        3.24950000       1.87610005       3.25185114      -0.34113083       1.02407000       0.59123900      -1.18528000
Zn       1.62475000       0.93805005       2.44478114       0.33242881      -0.05290530      -0.03033850       4.15225000
O        1.62475000       0.93805005       0.64840114      -0.32828528      -0.21125800      -0.12265700      -3.29187000
Zn       3.24950000       1.87610005      -0.15866886       0.31474487       0.61378500       0.35438400       3.43504000
O        3.24950000       1.87610005      -1.95504886      -0.31368172       0.05579370       0.03239730      -3.23363000
Zn       1.62475000       0.93805005      -2.76211886       0.28636074       0.02969110       0.01841370       0.82424300
O        1.62475000      -0.93804995       3.25185114      -0.30097052      -0.03493280       0.02056930      -1.52447000
Zn       0.00000000      -1.87609995       2.44478114       0.33243501       0.00000093       0.06011020       4.15228000
O        0.00000000      -1.87609995       0.64840114      -0.32828529       0.00000175       0.24414400      -3.29192000
Zn       1.62475000      -0.93804995      -0.15866886       0.34037496      -0.13922900       0.08050730       3.24007000
O        1.62475000      -0.93804995      -1.95504886      -0.32029031      -0.12640700       0.07319470      -3.55857000
Zn       0.00000000      -1.87609995      -2.76211886       0.28635646       0.00000013      -0.03198630       0.82428100
O        0.00000000      -3.75219995       3.25185114      -0.34115124      -0.00000203      -1.18224000      -1.18524000
Zn      -1.62475000      -4.69024895       2.44478114       0.38300793      -0.44419400       2.12415000       2.41020000
O       -1.62475000      -4.69024895       0.64840114      -0.39520539      -0.62792200       0.22943700      -2.31975000
Zn       0.00000000      -3.75219995      -0.15866886       0.31476196       0.00000034      -0.70893600       3.43514000
O        0.00000000      -3.75219995      -1.95504886      -0.31369258       0.00000107      -0.06495030      -3.23390000
Zn      -1.62475000      -4.69024895      -2.76211886       0.31196694      -0.34492200       0.77476500       0.75540500
Zn       4.87425000       0.93805005       2.44478114       0.38297376      -1.61642000      -1.44573000       2.41324000
O        4.87425000       0.93805005       0.64840114      -0.39520316       0.11511400      -0.65843800      -2.31999000
Zn       4.87425000       0.93805005      -2.76211886       0.31191579      -0.49691900      -0.68009400       0.76389400
O        4.87425000      -0.93804995       3.25185114      -0.34975651      -0.51417900       1.08760000      -1.27369000
Zn       3.24950000      -1.87609995       2.44478114       0.32121732       0.42245400      -0.24392400       4.68546000
O        3.24950000      -1.87609995       0.64840114      -0.31298925       0.73948600      -0.42727500      -3.19068000
Zn       4.87425000      -0.93804995      -0.15866886       0.41252116      -0.87165200       1.39109000       2.12877000
O        4.87425000      -0.93804995      -1.95504886      -0.38383791      -0.33732100       0.49618300      -2.77907000
Zn       3.24950000      -1.87609995      -2.76211886       0.36225362       0.75766200      -0.43575900       1.67933000
O        3.24950000      -3.75219895       3.25185114      -0.34975900      -1.19891000      -0.09813010      -1.27345000
Zn       1.62475000      -4.69024895       2.44478114       0.38300793       0.44419700       2.12415000       2.41020000
O        1.62475000      -4.69024895       0.64840114      -0.39520538       0.62792000       0.22943600      -2.31975000
Zn       3.24950000      -3.75219895      -0.15866886       0.41253291      -1.64106000       0.05890680       2.12868000
O        3.24950000      -3.75219895      -1.95504886      -0.38384407      -0.59789300       0.04450100      -2.77895000
Zn       1.62475000      -4.69024895      -2.76211886       0.31196694       0.34492300       0.77476500       0.75540500
76
Properties=species:S:1:pos:R:3:hirshfeld:R:1:forces:R:3 dipole_vector="0.7533078939649631 10.776577558843988 -2.458126570782247e-07" energy=-1944319.48738453 pbc="F F F"
O        2.02421289      -4.51200297       4.87425000      -0.38723684      -0.37033700       0.93274700      -0.58942700
Zn       2.96226289      -3.70493297       3.24950000       0.39013140      -2.22419000      -2.12668000       0.39182900
O        2.96226289      -1.90855297       3.24950000      -0.39291308      -0.01085840       1.98536000       0.52863100
Zn       2.02421289      -1.10148297       4.87425000       0.39271208      -0.80396900      -2.14382000      -1.40548000
O        2.02421289       0.69489703       4.87425000      -0.39182670      -0.11007000       1.94064000      -0.20160400
Zn       2.96226289       1.50196703       3.24950000       0.40603364      -1.26403000      -1.66362000       0.65939600
O        2.96226289       3.29834703       3.24950000      -0.38433383      -0.31501800       2.45490000       0.27124300
Zn       2.02421289       4.10541703       4.87425000       0.35029632      -0.66781000      -1.11151000      -1.17765000
Zn       0.14811289      -3.70493297       4.87425000       0.38950933       1.45858000      -2.14566000      -1.69376000
O        0.14811289      -1.90855297       4.87425000      -0.39453149       0.40868900       2.01227000       0.22571200
Zn       0.14811289       1.50196703       4.87425000       0.40670394       1.18500000      -1.69073000      -0.79989500
O        0.14811289       3.29834703       4.87425000      -0.38479137       0.37877600       2.46349000      -0.16081500
O        2.02421289      -4.51200297       1.62475000      -0.34532311       1.17802000       1.13177000       0.01419470
Zn       2.96226289      -3.70493297       0.00000000       0.37921069      -2.02863000      -1.92399000      -0.00000068
O        2.96226289      -1.90855297       0.00000000      -0.39918787      -0.21979300       2.07653000       0.00000076
Zn       2.02421289      -1.10148297       1.62475000       0.31291844       0.65471200      -3.41713000      -0.08974040
O        2.02421289       0.69489703       1.62475000      -0.31527412       0.71022300       2.74315000      -0.12122200
Zn       2.96226289       1.50196703       0.00000000       0.41548867      -1.11299000      -1.42684000      -0.00000031
O        2.96226289       3.29834703       0.00000000      -0.39265932      -0.65201300       2.50836000       0.00000043
Zn       2.02421289       4.10541703       1.62475000       0.32941795       0.88119500      -1.43097000       0.07256300
O       -0.78993711      -4.51200297       3.24950000      -0.34091342      -0.57230000       1.14002000       1.06775000
Zn       0.14811289      -3.70493297       1.62475000       0.34304122      -0.04962260      -3.69639000      -0.08544290
O        0.14811289      -1.90855297       1.62475000      -0.32135112      -0.13737500       2.86803000      -0.14455900
Zn      -0.78993711      -1.10148297       3.24950000       0.31770655      -0.27591800      -3.28335000       0.49822600
O       -0.78993711       0.69489703       3.24950000      -0.31539547      -0.28006500       2.72318000       0.63181100
Zn       0.14811289       1.50196703       1.62475000       0.34684457      -0.12717300      -2.72859000      -0.09816620
O        0.14811289       3.29834703       1.62475000      -0.32017593      -0.12112900       3.41212000      -0.24412600
Zn      -0.78993711       4.10541703       3.24950000       0.34077933      -0.35383100      -1.43218000       0.77106000
Zn      -2.66603611      -3.70493297       3.24950000       0.38130836       0.70139600      -2.23463000      -2.05063000
O       -2.66603611      -1.90855297       3.24950000      -0.39517736      -0.43644700       2.01266000      -0.41401800
Zn      -2.66603611       1.50196703       3.24950000       0.40912186      -0.00041322      -1.78847000      -1.55937000
O       -2.66603611       3.29834703       3.24950000      -0.38877162       0.01957530       2.54100000      -0.54314300
O        2.02421289      -4.51200297      -1.62475000      -0.34532311       1.17802000       1.13177000      -0.01419360
Zn       2.96226289      -3.70493297      -3.24950000       0.39013140      -2.22419000      -2.12668000      -0.39183000
O        2.96226289      -1.90855297      -3.24950000      -0.39291308      -0.01085800       1.98536000      -0.52863000
Zn       2.02421289      -1.10148297      -1.62475000       0.31291844       0.65471200      -3.41713000       0.08974010
O        2.02421289       0.69489703      -1.62475000      -0.31527412       0.71022300       2.74315000       0.12122200
Zn       2.96226289       1.50196703      -3.24950000       0.40603364      -1.26403000      -1.66363000      -0.65939600
O        2.96226289       3.29834703      -3.24950000      -0.38433383      -0.31501800       2.45490000      -0.27124300
Zn       2.02421289       4.10541703      -1.62475000       0.32941795       0.88119500      -1.43097000      -0.07256300
O       -0.78993711      -4.51200297       0.00000000      -0.30311323      -0.01746710       1.48773000       0.00000102
Zn       0.14811289      -3.70493297      -1.62475000       0.34304122      -0.04962290      -3.69639000       0.08544190
O        0.14811289      -1.90855297      -1.62475000      -0.32135112      -0.13737500       2.86803000       0.14455900
Zn      -0.78993711      -1.10148297       0.00000000       0.33713208       0.20798100      -2.78789000      -0.00000055
O       -0.78993711       0.69489703       0.00000000      -0.33200289       0.39877500       2.73159000       0.00000081
Zn       0.14811289       1.50196703      -1.62475000       0.34684457      -0.12717400      -2.72859000       0.09816620
O        0.14811289       3.29834703      -1.62475000      -0.32017593      -0.12112900       3.41212000       0.24412600
Zn      -0.78993711       4.10541703       0.00000000       0.31138330      -0.11308400      -1.03574000      -0.00000012
O       -3.60408611      -4.51200297       1.62475000      -0.34518119       0.94363600       1.18383000       0.71274500
Zn      -2.66603611      -3.70493297       0.00000000       0.32438511      -0.45210300      -4.38207000      -0.00000185
O       -2.66603611      -1.90855297       0.00000000      -0.31346549      -0.86719400       2.75337000       0.00000106
Zn      -3.60408611      -1.10148297       1.62475000       0.40172320       1.42418000      -1.67122000       0.68556200
O       -3.60408611       0.69489703       1.62475000      -0.39834422       0.29010400       1.85084000       0.58724400
Zn      -2.66603611       1.50196703       0.00000000       0.31303977      -0.81205800      -3.08596000      -0.00000022
O       -2.66603611       3.29834703       0.00000000      -0.31962268       0.07674310       3.04485000       0.00000033
Zn      -3.60408611       4.10541703       1.62475000       0.28867498       0.68633100      -0.58202600       0.28567300
O        2.02421289      -4.51200297      -4.87425000      -0.38723683      -0.37033700       0.93274700       0.58942700
Zn       2.02421289      -1.10148297      -4.87425000       0.39271208      -0.80396900      -2.14382000       1.40548000
O        2.02421289       0.69489703      -4.87425000      -0.39182670      -0.11007000       1.94064000       0.20160400
Zn       2.02421289       4.10541703      -4.87425000       0.35029633      -0.66781000      -1.11151000       1.17765000
O       -0.78993711      -4.51200297      -3.24950000      -0.34091341      -0.57230000       1.14002000      -1.06775000
Zn       0.14811289      -3.70493297      -4.87425000       0.38950932       1.45858000      -2.14566000       1.69376000
O        0.14811289      -1.90855297      -4.87425000      -0.39453149       0.40868900       2.01227000      -0.22571200
Zn      -0.78993711      -1.10148297      -3.24950000       0.31770655      -0.27591800      -3.28336000      -0.49822600
O       -0.78993711       0.69489703      -3.24950000      -0.31539547      -0.28006500       2.72318000      -0.63181000
Zn       0.14811289       1.50196703      -4.87425000       0.40670394       1.18500000      -1.69073000       0.79989500
O        0.14811289       3.29834703      -4.87425000      -0.38479137       0.37877600       2.46349000       0.16081500
Zn      -0.78993711       4.10541703      -3.24950000       0.34077933      -0.35383100      -1.43218000      -0.77106000
O       -3.60408611      -4.51200297      -1.62475000      -0.34518118       0.94363500       1.18383000      -0.71274400
Zn      -2.66603611      -3.70493297      -3.24950000       0.38130836       0.70139600      -2.23463000       2.05063000
O       -2.66603611      -1.90855297      -3.24950000      -0.39517736      -0.43644700       2.01266000       0.41401900
Zn      -3.60408611      -1.10148297      -1.62475000       0.40172320       1.42418000      -1.67122000      -0.68556200
O       -3.60408611       0.69489703      -1.62475000      -0.39834422       0.29010400       1.85084000      -0.58724400
Zn      -2.66603611       1.50196703      -3.24950000       0.40912186      -0.00041308      -1.78847000       1.55937000
O       -2.66603611       3.29834703      -3.24950000      -0.38877162       0.01957520       2.54100000       0.54314300
Zn      -3.60408611       4.10541703      -1.62475000       0.28867498       0.68633200      -0.58202700      -0.28567300
76
Properties=species:S:1:pos:R:3:hirshfeld:R:1:forces:R:3 dipole_vector="2.5173200963558343e-07 -13.85139498361678 1.0325199034779668" energy=-1944313.06992085 pbc="F F F"
O       -4.87424998       4.58832570      -0.29085874      -0.34112089       0.53375300      -1.25110000      -1.09239000
Zn      -4.87424998       3.72333670      -2.14096874       0.38592622       1.86566000       2.55290000       1.03399000
O       -4.87424998       1.92782370      -2.08513674      -0.39284306       0.09249020      -1.99890000       0.09780840
Zn      -4.87424998       1.17945270      -0.18485974       0.41033312       0.94867200       1.49014000      -1.23524000
O       -4.87424998      -0.61605930      -0.12902874      -0.40020979      -0.13732400      -1.85133000      -0.40414300
Zn      -4.87424898      -1.48104830      -1.97913874       0.40297238       1.37801000       2.28400000       0.69354600
O       -4.87424898      -3.27656030      -1.92330674      -0.37962454       0.31730000      -2.65780000       0.28103100
Zn      -4.87424898      -4.02493130      -0.02302974       0.31534527       0.46415300       0.67026600      -0.65672200
O       -3.24950098       4.67578870       2.52193126      -0.34395082       1.19736000      -1.15870000       0.08943320
Zn      -3.24950098       3.81079970       0.67182126       0.32374277      -0.45583900       4.49085000       0.12270300
O       -3.24950098       2.01528770       0.72765326      -0.31534829      -0.73194000      -2.82034000       0.44504200
Zn      -3.24949998       1.26691670       2.62793026       0.40432221       1.58111000       1.68155000      -0.16559100
O       -3.24949998      -0.52859530       2.68376126      -0.39863026       0.54080200      -1.88365000       0.46199300
Zn      -3.24949998      -1.39358430       0.83365126       0.31461878      -0.61602800       3.26793000       0.18339200
O       -3.24949998      -3.18909630       0.88948326      -0.31593135      -0.02620420      -3.19783000       0.09671370
Zn      -3.24949998      -3.93746730       2.78976026       0.29863380       0.83096800       0.62322100      -0.06593060
Zn      -1.62475098       3.89826370       3.48461226       0.38550247      -0.44663100       2.13414000      -2.15919000
O       -1.62474998       2.10275170       3.54044326      -0.39581577      -0.55213300      -2.05610000      -0.08652700
Zn      -1.62474998      -1.30612030       3.64644226       0.41008222      -0.75786600       1.84375000      -1.43481000
O       -1.62474998      -3.10163330       3.70227326      -0.38533311      -0.24753600      -2.61811000      -0.42190800
O       -3.24949998       4.50086170      -3.10364874      -0.34043745      -0.66975600      -1.18187000       1.05825000
Zn      -3.24949998       1.09198970      -2.99764974       0.41165441      -0.55290900       1.54216000       1.34623000
O       -3.24949898      -0.70352230      -2.94181874      -0.39932256      -0.55201800      -1.84596000       0.19414400
Zn      -3.24949898      -4.11239530      -2.83581974       0.31844993      -0.35522500       0.71773300       0.69002900
O       -1.62475098       4.58832570      -0.29085874      -0.29144150       0.03434880      -1.44125000      -0.01719080
Zn      -1.62475098       3.72333670      -2.14096874       0.31856250      -0.07116700       4.54038000      -0.64138700
O       -1.62474998       1.92782470      -2.08513674      -0.31623955       0.07657310      -2.86418000      -0.74182500
Zn      -1.62474998       1.17945370      -0.18485974       0.34473977       0.16051900       2.49145000       0.02819160