 192
 energy=-1625857.9120181422 cutoff=6.00000000 nneightol=1.20000000 pbc="T T T" Lattice="16.53845800       0.00000000       0.00000000      -7.79014600      14.58708400       0.00000000       2.85195300       4.75475500      18.21222600" Properties=species:S:1:pos:R:3:forces:R:3:Z:I:1:map_shift:I:3:n_neighb:I:1:force:R:3
 P               4.23266700      1.53605400      4.49301400     -0.56259339     -0.09852224     -0.30390644      15       0       0       0      47     -0.45101628     -0.01586138     -0.10993000
 P               8.31027100      3.24552600      7.43073500     -0.53975418     -0.17755669      0.89319717      15       0       0       0      51     -0.59770364     -0.35462029      0.83419967
 S              -5.41108900     15.23926200      4.22791000      0.40268117      0.27980627     -0.64562231      16       0      -1       0      49      0.34512151      0.35624023     -0.72555019
 S              -4.06136900     14.94876800      8.16105700      0.31802759     -0.40707254     -0.29730219      16       0      -1       0      49      0.21811363     -0.41145236     -0.33331129
 S              -1.14301600     12.29073700      7.70806600      0.51466169      0.24944403     -0.31933617      16       0      -1       0      55      0.43748010      0.32259779     -0.34847684
 S               8.84016700      4.81115600      6.28885100      0.70862577      0.50546933     -0.59331872      16      -1       0       0      52      0.05867440      0.41779817     -0.31635869
 S               6.64873200      2.25398700      6.77592700     -0.77333366     -0.27566019      1.06555996      16       0       0       0      53     -0.26705206     -0.01399767      1.32926395
 S               8.27877400      3.69808900      9.46305300      0.24370062     -0.33822312     -0.31730257      16       0       0      -1      48      0.36792340     -0.34021978     -0.47556841
 P               0.94218500     15.16397900      3.05306300     -0.79301268     -0.14480321     -0.99382248      15       0      -1       0      50     -0.72570728     -0.21430431     -0.82277328
 P               9.04319700      2.16016700      1.39336400     -0.06161122      0.19010620     -1.07925185      15      -1       0       0      53      0.03220872      0.09974466     -1.04096606
 S               2.12174200     13.48762900      2.67568200     -0.43343069      0.98361137     -0.60823392      16      -1      -1       0      57     -0.38695728      0.80843261     -0.54310715
 S              -1.18391000     15.03868200      3.04308800      1.24403325     -0.05800560     -0.08081650      16       0      -1       0      51      1.16894227     -0.22727270     -0.20600381
 S               9.25284000      1.59676900      4.70144300      0.72066130      0.01471123      0.23318715      16      -1       0       0      47      0.84234164      0.03269014      0.21576050
 S              11.02779200      2.60397600      1.22583700     -0.20510033     -0.83907399      0.58789972      16      -1       0       0      49     -0.30281057     -0.71938676      0.54864418
 S              11.24540900      5.96770400     17.90870100      0.13088351     -0.43949515      0.41883869      16      -1       0      -1      50      0.17120675     -0.30008233      0.39934190
 S               7.98143100      3.90168800      1.61069000     -0.00449616     -0.11889791      0.75932951      16      -1       0       0      51     -0.01289310      0.06475284      0.79929066
 P               0.48325100     15.78948700     14.25306300      0.81711385     -0.28617268     -0.28260896      15       0      -1      -1      48     -0.02189114      0.66302143     -0.10893597
 P               1.97507100     16.98619500     15.64690400      0.53529249     -1.23015277     -0.23686913      15       0      -1      -1      51      0.96121507     -0.88315700      0.15301456
 S               0.26318800     16.79738600     12.42906500     -0.66438293     -0.26983767      0.44410080      16       0      -1      -1      48     -0.47554675     -0.65105924      0.70732628
 S              -4.10843400     18.21080800     17.05190800     -0.67847189     -0.64827773     -0.34582406      16       0      -1      -1      49     -0.54324799     -0.75233102     -0.49007414
 S              -1.26756700     15.94153300     15.33840800     -0.65903768      0.03497268      0.46484930      16       0      -1      -1      49      0.01899123     -0.24567600      0.15945840
 S               2.77717900     15.37230900     16.86782600     -0.69246896      0.70569693     -0.52458180      16       0      -1      -1      52     -0.65078642      0.64781532     -0.75749331
 S               3.54251200     17.86044000     14.62928400     -0.30934481     -0.29951551     -0.32757718      16      -1      -1      -1      53     -0.40932823     -0.49599064     -0.36269554
 S               1.17529100     18.37630600     16.86602600     -0.16355406      0.04078000      0.24415521      16       0      -1      -1      49     -0.25476657     -0.05227955      0.22004363
 P               7.63038600     18.01807000     15.11861900     -0.82457056      1.21633880      1.43254986      15      -1      -1      -1      49     -0.36260275      1.75140700      0.90912551
 P               8.28569900     17.05326100     17.22997300      0.73339245      0.29110783      1.41345767      15      -1      -1      -1      51      0.84615533     -0.07665405      1.09694281
 S              17.32719300      3.51472000     12.26474800      0.08593018      0.68344214      1.08805821      16      -1       0      -1      51     -0.25006896      0.65207832      1.16280630
 S              13.96538800      4.78655500     15.68533300      0.56303440     -0.13345249      0.08147890      16      -1       0      -1      48      0.14166521     -0.14074824      0.05801982
 S               7.16467400     16.47884000     14.04726100     -0.33124269     -1.29266648     -0.51236489      16      -1      -1      -1      51     -0.50278686     -1.53982503     -0.61641313
 S               9.86176600     15.67209000     16.98781500     -0.84314258      0.57928196      0.44038115      16      -1      -1      -1      47     -0.82105803      0.58629914      0.54211169
 S               5.99039400     13.69048500      0.57925200     -0.06887525     -0.33632856     -1.65344535      16      -1      -1       0      50      0.10751364     -0.29144702     -1.14108601
 S               6.60137500     16.17914500     18.08421000      0.46861450      0.03028798     -0.74909688      16      -1      -1      -1      54      0.35575091      0.01009108     -0.54434052
 P              -4.27463600     16.16370100      9.68866000     -1.21451958     -0.84867404      0.40168863      15       0      -1      -1      52     -1.41146806     -0.55346227      0.17136176
 P               2.02100900      4.32195900      8.11908000      0.03311382     -0.48056631     -0.67890205      15       0       0       0      51     -0.07191559     -0.93526014     -0.33113451
 S               4.42915500      2.97134300      2.95673400     -0.48626282     -0.11005267      0.60694342      16       0       0       0      45     -0.65109853     -0.23940453      0.50408351
 S               1.63716900      2.43348000      9.48504100     -0.17522584      1.44594909     -0.64486240      16       0       0      -1      50     -0.02045599      1.09946289     -0.55365013
 S              -2.96914000     17.32083300     10.57248700      1.53230308      0.37255446     -0.25611895      16       0      -1      -1      51      1.60464519      0.50573044     -0.13026020
 S               3.26938700      5.79245500      8.78205600     -0.46601531     -0.95965547      0.77207236      16       0       0       0      53     -0.45005414     -0.47754583      0.41008043
 S               2.62851300      3.82187100      6.20525000     -0.03715257      0.07712500      0.41870364      16       0       0       0      49     -0.03766546      0.32560369      0.12320372
 S               0.10860600      5.03447900      8.12461200     -0.30051895      0.09233397     -0.29505524      16       0       0       0      50     -0.16150079      0.26354421     -0.41257876
 P              12.20121300     13.31442100     12.17227700      0.54461804     -0.12097713     -0.31913461      15      -1      -1      -1      50      0.56402072      0.20761004     -0.28206890
 P              10.25581900     11.80153900      7.78152300      1.02873671     -1.41317601     -0.32685296      15      -1      -1       0      54      0.72983771     -1.55375019     -0.03150848
 S              10.95465900     11.77602900     11.69467300     -0.04982312     -0.01798146     -0.03812293      16      -1      -1      -1      52     -0.40619484     -0.24639637     -0.25827006
 S              11.40438100     15.19303100     11.51383500     -0.38498372     -0.14189469     -0.22990728      16      -1      -1      -1      50     -0.63509522     -0.53963380     -0.30857729
 S              -2.47972000     12.88649000     11.39555100     -0.03608410      0.32760986     -0.24881496      16       0      -1      -1      45     -0.00469311      0.26512812     -0.34602770
 S               7.26772700     10.11661000      4.04247100      0.04513812     -0.01327099      0.55971019      16      -1      -1       0      48      0.02788876     -0.07434137      0.42779791
 S               9.34619300     13.32368200      6.83613400      0.14245470     -0.50111223     -0.42487181      16      -1      -1       0      51      0.37526463     -0.69501667     -0.73956905
 S              11.53133700     10.55613100      6.61853400     -0.98046561      2.03823207      0.35320495      16      -1      -1       0      50     -1.01681431      2.01530390      0.01702506
 P               3.73080700      5.03356800     14.64638800     -0.51552656      0.09457400     -0.02280966      15       0       0      -1      48     -0.60140000     -0.31119478      0.23021670
 P               4.35626100      5.28919100     17.82779500      0.08429720      2.20720874      0.38769383      15       0       0      -1      44      0.13483126      1.99251940      0.67478708
 S               5.31229600      5.23978600     13.40251900      0.75047169     -0.88658201     -0.91256080      16       0       0      -1      50      0.88025197     -0.65216188     -0.89626341
 S               0.93571800      6.96751500     12.99007000      0.66952644      1.04275642     -0.63533204      16       0       0      -1      50      0.61276236      0.55748796     -0.56689419
 S              16.65448100      4.65471200     13.97817700      1.01421387     -0.68309573     -0.69189842      16      -1       0      -1      53      1.26205188     -0.52698699     -0.70200908
 S               3.52943900      0.52565800     -0.11841000     -0.73685719      0.28245880      1.01022571      16       0       0       0      48     -0.79657729      0.28835405      0.81459859
 S               4.12660000      6.69513600     15.81000800     -0.29074932     -0.00743339      0.86670213      16       0       0      -1      50     -0.04739886      0.17373027      0.96277903
 S               0.09262600      1.74603200      0.71648500      0.60521990     -1.26878108     -0.40244517      16       0       0       0      51      0.60464443     -1.21306679     -0.75911421
 P              -0.82854800      9.95324100     15.50281200     -0.69374644     -0.96972235     -0.26130943      15       0       0      -1      50     -1.34344863     -0.70709965     -0.14550693
 P              15.24952800     11.37432700     17.36053900      2.28610387     -0.42129309      1.99690138      15      -1       0      -1      47      2.44865563     -0.97618743      0.93500835
 S              13.88681600      9.97078400     14.32776000      1.59901617     -0.15400583      0.62676630      16      -1       0      -1      48      1.28183528      0.01272125      0.43293562
 S               0.99543200     12.24833900     13.83732200     -0.08328718     -1.39309104      0.44294401      16       0      -1      -1      47      0.06469494     -1.22615375      0.48617098
 S               4.09122200     14.00873000     12.55520800     -0.05829098      0.41775223     -0.16948223      16       0      -1      -1      51     -0.19658695      0.50027210     -0.06026212
 S              14.13268200     12.96278600     17.16892100     -0.57025624      0.60733181     -0.58196673      16      -1      -1      -1      53     -0.65781061      0.86079483     -0.49955627
 S               9.69302500     10.83898800     16.84817900     -0.09638204     -0.25482004      0.09206727      16      -1       0      -1      49     -0.07449647     -0.20808958      0.18226252
 S               0.71208300     11.81125100     18.47661900     -1.02975016      0.42950249     -1.81880249      16       0       0      -1      45     -0.91570558      0.46561286     -1.37588992
 P               9.31559600      9.09591300     15.85742200      1.41017370      1.13095872     -1.37500373      15      -1       0      -1      45      1.36909475      0.68856569     -0.62790921
 P               7.46605700     11.60405300     14.05008100      0.39374901      0.61855534     -1.63246304      15      -1      -1      -1      48      0.63302491      0.82192613      0.00877558
 S               8.50735300      9.79952500     13.77750700      0.29509628      0.37766258      1.14083404      16      -1       0      -1      45      0.22396293      0.21922312     -0.11816982
 S               7.92433000      7.88216900     16.65021000     -0.27134438     -0.28153430      0.16643266      16       0       0      -1      49     -0.19915044     -0.04065106     -0.02539681
 S              11.04080300      8.26788700     15.02806900     -0.47208773      0.39610917      0.54864586      16      -1       0      -1      49     -0.70801416      0.62162928      0.40682048
 S              12.32419700     13.91713700     14.11895900     -0.10604067     -0.15281296      0.24393187      16      -1      -1      -1      53     -0.07292441     -0.22719386      0.52569169
 S               5.88886400     11.37460200     15.27669100     -0.34332677     -0.03763495      1.00749392      16       0      -1      -1      47     -0.02271528      0.13793624      0.36900102
 S               8.70556400     13.27652500     14.20942100     -0.35818752     -0.49522521      0.49186036      16      -1      -1      -1      50     -0.95984786     -1.01346989      0.12532707
 P               1.02959300     10.14050500     14.28917300      1.32764528      1.42744081     -0.13572824      15       0       0      -1      45      1.48451236      0.97222105     -0.67367843
 P              13.16923600      3.84883500      3.73181400     -0.75314763      0.97889590     -0.32754585      15      -1       0       0      47      0.21513835      0.28848411      0.22392637
 S               1.36595800      8.98495400     12.35729900     -0.86588405     -0.04199375      0.28530096      16       0       0      -1      53     -0.72056081      0.23871460      0.44011516
 S              16.12370400      8.08294100     16.35207000     -0.94714073      0.61633258     -0.44746364      16      -1       0      -1      49     -0.51208919      0.51811860     -0.18380707
 S               2.63883400      9.68537200     15.48365900     -0.65602184      0.31238094     -0.46742947      16       0       0      -1      51     -0.49748431      0.47405659     -0.44594283
 S              11.81774200      5.17874300      0.43602900     -1.29739110      0.39947568     -0.14474738      16      -1       0       0      47     -1.21373607      0.52123500      0.51176027
 S              14.09610800      2.47119400      2.53992100      0.18198535     -0.87842746     -0.19495450      16      -1       0       0      48     -0.12808531     -0.34760296     -0.07810401
 S              14.51865700      5.30994300      4.01704200      0.43813758      0.48914798      0.47038121      16      -1       0       0      46     -0.05654440      0.25519110      0.26338822
 P               7.00441500     15.82930100      5.29135700     -0.51569827     -0.74259467      0.93159873      15      -1      -1       0      49     -0.34870700     -0.74755359      0.18988733
 P               6.64245300     15.32630900      9.27183500     -0.17073548      1.31255244      0.14689342      15      -1      -1      -1      48      0.19994259      1.01095660      0.52225652
 S              12.38025900      3.03353700      5.50512800      0.58114159     -0.22682378     -0.26274375      16      -1       0       0      47      0.11029334      0.13800944     -0.34781439
 S               5.61876300     14.26442500      5.17848800      0.94496933      0.10828392     -0.34355727      16      -1      -1       0      51      0.97085085      0.35361108      0.11107299
 S               7.53117700     16.27101500     10.91702200      0.23302982     -1.10064993     -0.75560219      16      -1      -1      -1      56      0.00893173     -0.98956420     -0.56103017
 S              11.76558000      4.31518400     10.31936900      2.00767278      0.79006457      0.46387254      16      -1       0      -1      49      1.73190831      0.60775734      0.26511505
 S              10.11992200      6.88312200      4.56079800      0.18023906      0.21333668      0.21670953      16      -1       0       0      55      0.43700575      0.23113674      0.02594797
 S               4.74282000     15.90570000      9.15520100     -0.69261051      0.58046258     -0.90378996      16      -1      -1      -1      54     -0.97091336      0.71447507     -0.75806954
 P               2.21384900     11.53129300      7.04661200      0.98493116     -0.43740782      1.10707961      15       0      -1       0      51      0.89591572     -0.53627686      1.14771256
 P               0.72917500     12.39550800      8.52572000      0.27035995      1.39472521      1.22908864      15       0      -1       0      50      0.27394702      1.36644558      1.24277090
 S               4.17924300     11.98288000      7.67313600     -2.19035480     -0.27872731      0.09034475      16      -1      -1       0      54     -1.64910117     -0.27110630      0.00946755
 S               1.76850800     12.51039200      5.41428500     -0.14667408      0.16089882     -0.97572230      16       0      -1       0      53     -0.16343487      0.17316650     -0.84188931
 S               1.88605000      9.52541900      7.14127000      0.04660771     -0.15341879      0.04938310      16       0      -1       0      52      0.04424191     -0.17397940     -0.05391741
 S               6.49311800     13.36242300      9.44610800      1.23528841     -1.51646086      0.86390318      16      -1      -1      -1      53      1.03714008     -1.45213422      0.80127195
 S               1.38540700     14.48010500      8.63494000     -0.87111749     -1.16025615      0.17877585      16       0      -1       0      51     -0.69941838     -1.05980063      0.09873213
 S               0.87874600     11.68247900     10.50460800      0.49419105      0.14755484     -1.06209596      16       0      -1      -1      44      0.62139147      0.08671207     -1.26405866
 P               2.11494300      7.54190200      2.06261500      0.61032327      0.34031509      0.89790382      15       0       0       0      43      0.49605941      0.43589888      0.77675328
 P               4.23796600      8.11047100      2.84551500      0.87798796      1.19198696     -1.73926149      15       0      -1       0      48      0.77572163      1.25531948     -1.70650813
 S               2.06841300      5.62718700      1.54082900     -0.14702933     -1.36164709     -0.94278110      16       0       0       0      45      0.03918465     -1.27976097     -0.89978079
 S               1.65666700      8.70141300      0.47977000      0.03184855      0.28923431      0.61340020      16       0      -1       0      49     -0.06362575      0.34390710      0.47079623
 S               1.19564600      7.73625800      3.91242500     -0.30244196      0.14634198     -0.17339853      16       0       0       0      47     -0.14251641      0.16480903     -0.04181032
 S               4.99728900      7.18106800      4.49645700     -0.29128854      0.16298862      0.48390684      16       0       0       0      50     -0.18341821      0.11265201      0.67854366
 S               5.64441000      7.62147200      1.24833200     -1.20081229      0.26002942      1.08722903      16      -1      -1       0      47     -1.03264038      0.37176111      1.03182832
 S               3.84461900     10.16039100      3.13045900      1.38287823     -0.99541303     -0.05837433      16      -1      -1       0      46      1.47829207     -1.04780794     -0.05016398
 P               9.18324900     10.30630500      3.17186300      0.25156443     -0.31440930     -0.06509744      15      -1      -1       0      48      0.33696680     -0.31533243     -0.46347520
 P              -2.75687300     10.76245200      3.31792600     -0.34145184      0.22553522     -0.67161754      15       0      -1       0      49     -0.27558427      0.49103280     -0.22155858
 S              -4.38303500     10.96723500      2.00005100      0.47590345      0.01917247      0.29851120      16       0      -1       0      47      0.14832661     -0.00951378      0.24160587
 S               9.02760500     12.15852700      2.25254600      0.26256422      0.79991206     -0.34985756      16      -1      -1       0      54      0.26161598      0.45387208     -0.14694697
 S               9.14394400      9.14744800      1.36203700      0.06177482     -0.13305390      0.06740276      16      -1      -1       0      45      0.00034446      0.01402268      0.62413778
 S              -2.93386700      8.90638500      4.11036800      0.52969725     -0.57029644      0.46845631      16       0      -1       0      52      0.44381967     -0.54704338      0.39199909
 S              -1.09849200     11.14268100      2.16052500      0.36427207     -0.79509841     -0.16495110      16       0      -1       0      53      0.23482739     -0.77570713     -0.13461998
 S              -2.69780300     12.16139700      4.76322800     -0.35594158      0.30432240      0.62725242      16       0      -1       0      49     -0.30221960      0.17874722      0.40024741
 P               7.09114400      8.35542800      8.85851800      0.83004938     -0.10658185     -1.34067648      15      -1       0       0      50      0.55125794     -0.41247061     -1.28591982
 P               6.20907600      8.24842300     10.95683100     -1.52769030     -0.09425623     -0.73737786      15       0       0      -1      57     -1.20440280     -0.57674253     -0.61184854
 S               6.57310600     10.17074900      8.15328100     -0.45500564     -0.09675818      0.26446454      16      -1      -1       0      53     -0.46476847      0.08599069      0.23161647
 S               6.31008000      6.90482100      7.69448100      0.32143928      0.87781944     -0.23438507      16       0       0       0      49      0.31378275      0.92829458     -0.22260664
 S               9.20388400      8.49044600      8.70231800     -0.97306827     -0.51276571      1.11298567      16      -1       0       0      48     -0.87946624     -0.08999667      0.92272841
 S               5.54884500      9.99907300     11.69047700      0.53690078      0.88574154      0.18127214      16       0       0      -1      51      0.46560326      0.93591809      0.15918097
 S               4.41285700      7.26364400     10.61220200      0.42529051      0.13315735      0.01048478      16       0       0      -1      49      0.53408266      0.35000730      0.12386868
 S               7.55123900      7.20364200     11.91403000      1.17388916     -0.87075652      0.50978953      16       0       0      -1      49      1.00667904     -0.76853610      0.52214833
 P              12.74851600      5.32856100     12.08971700     -0.24257590     -0.67526800     -1.91724231      15      -1       0      -1      49      0.19531756     -0.67978150     -1.47398065
 P              13.78103000      7.78990200      9.18117000      0.16980024      0.00407196      0.30348105      15      -1       0      -1      48      0.36904603     -0.23990383      0.45920643
 S               7.90190200     15.80659700      7.29996800     -2.06816061      0.19012326      0.55573410      16      -1      -1       0      46     -2.21916191      0.45584976      0.24464830
 S              11.04070600      6.22235500     12.72137800      0.04591016      0.66658326      0.17006285      16      -1       0      -1      48     -0.31984319      0.55560884      0.13264430
 S              14.38299500      6.87479400     11.06206900     -0.88808620     -0.63678667      0.32297574      16      -1       0      -1      53     -0.65229850     -0.55512926      0.10161641
 S              -1.17757400      9.17313800      9.21385800     -0.76825216     -0.47763483     -0.09766805      16       0       0      -1      54     -0.93788784     -0.52740159     -0.22024636
 S              13.86185400      6.54099900      7.57747400      0.12043126      0.09036469      0.15759196      16      -1       0       0      52     -0.04748477      0.09162067      0.10736751
 S              11.83384900      8.41053800      9.41231300      0.92764949      0.16429299      0.05652048      16      -1       0      -1      45      0.95840357      0.17082346     -0.11599588
 Na             11.50742900      8.76071400     12.03172400     -0.00820770      0.30197353      0.26069997      11      -1       0      -1      52      0.14172900      0.35845931      0.25619760
 Na              2.93781700     12.59603500     16.60087900     -0.25675960     -0.28359319     -0.15389209      11       0      -1      -1      50     -0.34768008     -0.42868023     -0.13718830
 Na              3.40726800      9.90078400      9.73948900      0.08965421     -0.14808898     -0.17342995      11       0      -1      -1      50     -0.04067367     -0.20047953     -0.10677558
 Na              6.46796900     10.95174000      1.59982900     -0.04550098     -0.17525872      0.11183581      11      -1      -1       0      49     -0.13585023     -0.11168033     -0.04428155
 Na             10.18048900      5.70759200     15.19381200     -0.00658165     -0.10494519      0.46018110      11      -1       0      -1      48     -0.10933848     -0.11530644      0.37089722
 Na             -1.51627600     14.80133200      8.99284900      0.48431023      0.21593772      0.07896151      11       0      -1       0      54      0.42783984      0.27105489      0.03386605
 Na              5.90819900      4.70705400      8.76132300     -0.33156490     -0.59311674      0.27068112      11       0       0       0      52     -0.32728869     -0.67079206      0.21781323
 Na             -0.85064800      9.65272600      6.33089600     -0.26890474      0.03501341     -0.06392834      11       0      -1       0      50     -0.32681884      0.00572229      0.02992234
 Na             14.75060500      3.86831900      6.44549800      0.18028206      0.48569633     -0.10455632      11      -1       0       0      52      0.27609349      0.32056946      0.00561167
 Na              3.55331000      7.63415600     13.11874500      0.27863235      0.23358279      0.31415871      11       0       0      -1      51      0.23302176      0.22969569      0.31504531
 Na              9.14691700      6.67478500      0.47900000     -0.09450407     -0.48320801     -0.00578971      11      -1       0       0      49     -0.01528477     -0.50409996     -0.20461251
 Na              3.32579600     14.67932300      6.76368100      0.20186693      0.04337928     -0.15628418      11      -1      -1       0      51      0.07964552      0.00506866     -0.11927083
 Na             13.33050300     15.83874800     17.88182200     -0.12244162     -0.19374425      0.48591722      11      -1      -1      -1      51     -0.20179985     -0.21875711      0.29791764
 Na              6.73562500      2.96647400      4.34591600      0.54432359      0.56500272     -0.56988331      11       0       0       0      49      0.41729964      0.60151406     -0.45578098
 Na              0.50728300      6.79854100     10.09212500      0.11735231      0.27054459      0.22348572      11       0       0      -1      51      0.05494847      0.21390593      0.18898131
 Na             -2.61174700      9.96563600     -0.16008200      0.06785751      0.18575030     -0.00201700      11       0      -1       0      47      0.06940433      0.05283771     -0.08935269
 Na              4.81260900     16.78836200     11.99144100      0.12806076     -0.73181734      0.19700634      11      -1      -1      -1      50      0.35198695     -0.51998743      0.10014198
 Na              3.51562400      5.28486100      3.66350900     -0.11153217     -0.18794757      0.48432063      11       0       0       0      41     -0.12347796     -0.33306912      0.62040411
 Na              9.63311500     13.70802600      9.66279900      0.00907481      0.49041860      0.16181709      11      -1      -1      -1      53      0.17590848      0.67822264      0.21025593
 Na             14.41663800      4.39709300      0.51854600      0.37491033     -0.21023578      0.26749279      11      -1       0       0      47      0.28395528     -0.32906425      0.02722636
 Na             10.79141300     12.59498500      4.33861800      0.16927260     -0.57278920      0.20046954      11      -1      -1       0      47      0.25966133     -0.41277915      0.33098981
 Na             14.89468700      3.84767800      9.78504600     -0.44614056      0.86399423     -0.01694904      11      -1       0      -1      52     -0.36302659      0.97591671      0.02363257
 Na              2.17788600      6.63388600      6.57837900     -0.05363872      0.69238552     -0.87044845      11       0       0       0      52     -0.12404584      0.52911949     -0.68192805