192
Lattice="16.538458 0.0 0.0 -7.790146 14.587084 0.0 2.851953 4.754755 18.212226" Properties=species:S:1:pos:R:3:forces:R:3 energy=-1625858.970976289 pbc="T T T"
P        4.23266700       1.53605400       4.49301400      -0.56259339      -0.09852224      -0.30390644
P        8.31027100       3.24552600       7.43073500      -0.53975418      -0.17755669       0.89319717
S       -5.41108900      15.23926200       4.22791000       0.40268117       0.27980627      -0.64562231
S       -4.06136900      14.94876800       8.16105700       0.31802759      -0.40707254      -0.29730219
S       -1.14301600      12.29073700       7.70806600       0.51466169       0.24944403      -0.31933617
S        8.84016700       4.81115600       6.28885100       0.70862577       0.50546933      -0.59331872
S        6.64873200       2.25398700       6.77592700      -0.77333366      -0.27566019       1.06555996
S        8.27877400       3.69808900       9.46305300       0.24370062      -0.33822312      -0.31730257
P        0.94218500      15.16397900       3.05306300      -0.79301268      -0.14480321      -0.99382248
P        9.04319700       2.16016700       1.39336400      -0.06161122       0.19010620      -1.07925185
S        2.12174200      13.48762900       2.67568200      -0.43343069       0.98361137      -0.60823392
S       -1.18391000      15.03868200       3.04308800       1.24403325      -0.05800560      -0.08081650
S        9.25284000       1.59676900       4.70144300       0.72066130       0.01471123       0.23318715
S       11.02779200       2.60397600       1.22583700      -0.20510033      -0.83907399       0.58789972
S       11.24540900       5.96770400      17.90870100       0.13088351      -0.43949515       0.41883869
S        7.98143100       3.90168800       1.61069000      -0.00449616      -0.11889791       0.75932951
P        0.48325100      15.78948700      14.25306300       0.81711385      -0.28617268      -0.28260896
P        1.97507100      16.98619500      15.64690400       0.53529249      -1.23015277      -0.23686913
S        0.26318800      16.79738600      12.42906500      -0.66438293      -0.26983767       0.44410080
S       -4.10843400      18.21080800      17.05190800      -0.67847189      -0.64827773      -0.34582406
S       -1.26756700      15.94153300      15.33840800      -0.65903768       0.03497268       0.46484930
S        2.77717900      15.37230900      16.86782600      -0.69246896       0.70569693      -0.52458180
S        3.54251200      17.86044000      14.62928400      -0.30934481      -0.29951551      -0.32757718
S        1.17529100      18.37630600      16.86602600      -0.16355406       0.04078000       0.24415521
P        7.63038600      18.01807000      15.11861900      -0.82457056       1.21633880       1.43254986
P        8.28569900      17.05326100      17.22997300       0.73339245       0.29110783       1.41345767
S       17.32719300       3.51472000      12.26474800       0.08593018       0.68344214       1.08805821
S       13.96538800       4.78655500      15.68533300       0.56303440      -0.13345249       0.08147890
S        7.16467400      16.47884000      14.04726100      -0.33124269      -1.29266648      -0.51236489
S        9.86176600      15.67209000      16.98781500      -0.84314258       0.57928196       0.44038115
S        5.99039400      13.69048500       0.57925200      -0.06887525      -0.33632856      -1.65344535
S        6.60137500      16.17914500      18.08421000       0.46861450       0.03028798      -0.74909688
P       -4.27463600      16.16370100       9.68866000      -1.21451958      -0.84867404       0.40168863
P        2.02100900       4.32195900       8.11908000       0.03311382      -0.48056631      -0.67890205
S        4.42915500       2.97134300       2.95673400      -0.48626282      -0.11005267       0.60694342
S        1.63716900       2.43348000       9.48504100      -0.17522584       1.44594909      -0.64486240
S       -2.96914000      17.32083300      10.57248700       1.53230308       0.37255446      -0.25611895
S        3.26938700       5.79245500       8.78205600      -0.46601531      -0.95965547       0.77207236
S        2.62851300       3.82187100       6.20525000      -0.03715257       0.07712500       0.41870364
S        0.10860600       5.03447900       8.12461200      -0.30051895       0.09233397      -0.29505524
P       12.20121300      13.31442100      12.17227700       0.54461804      -0.12097713      -0.31913461
P       10.25581900      11.80153900       7.78152300       1.02873671      -1.41317601      -0.32685296
S       10.95465900      11.77602900      11.69467300      -0.04982312      -0.01798146      -0.03812293
S       11.40438100      15.19303100      11.51383500      -0.38498372      -0.14189469      -0.22990728
S       -2.47972000      12.88649000      11.39555100      -0.03608410       0.32760986      -0.24881496
S        7.26772700      10.11661000       4.04247100       0.04513812      -0.01327099       0.55971019
S        9.34619300      13.32368200       6.83613400       0.14245470      -0.50111223      -0.42487181
S       11.53133700      10.55613100       6.61853400      -0.98046561       2.03823207       0.35320495
P        3.73080700       5.03356800      14.64638800      -0.51552656       0.09457400      -0.02280966
P        4.35626100       5.28919100      17.82779500       0.08429720       2.20720874       0.38769383
S        5.31229600       5.23978600      13.40251900       0.75047169      -0.88658201      -0.91256080
S        0.93571800       6.96751500      12.99007000       0.66952644       1.04275642      -0.63533204
S       16.65448100       4.65471200      13.97817700       1.01421387      -0.68309573      -0.69189842
S        3.52943900       0.52565800      -0.11841000      -0.73685719       0.28245880       1.01022571
S        4.12660000       6.69513600      15.81000800      -0.29074932      -0.00743339       0.86670213
S        0.09262600       1.74603200       0.71648500       0.60521990      -1.26878108      -0.40244517
P       -0.82854800       9.95324100      15.50281200      -0.69374644      -0.96972235      -0.26130943
P       15.24952800      11.37432700      17.36053900       2.28610387      -0.42129309       1.99690138
S       13.88681600       9.97078400      14.32776000       1.59901617      -0.15400583       0.62676630
S        0.99543200      12.24833900      13.83732200      -0.08328718      -1.39309104       0.44294401
S        4.09122200      14.00873000      12.55520800      -0.05829098       0.41775223      -0.16948223
S       14.13268200      12.96278600      17.16892100      -0.57025624       0.60733181      -0.58196673
S        9.69302500      10.83898800      16.84817900      -0.09638204      -0.25482004       0.09206727
S        0.71208300      11.81125100      18.47661900      -1.02975016       0.42950249      -1.81880249
P        9.31559600       9.09591300      15.85742200       1.41017370       1.13095872      -1.37500373
P        7.46605700      11.60405300      14.05008100       0.39374901       0.61855534      -1.63246304
S        8.50735300       9.79952500      13.77750700       0.29509628       0.37766258       1.14083404
S        7.92433000       7.88216900      16.65021000      -0.27134438      -0.28153430       0.16643266
S       11.04080300       8.26788700      15.02806900      -0.47208773       0.39610917       0.54864586
S       12.32419700      13.91713700      14.11895900      -0.10604067      -0.15281296       0.24393187
S        5.88886400      11.37460200      15.27669100      -0.34332677      -0.03763495       1.00749392
S        8.70556400      13.27652500      14.20942100      -0.35818752      -0.49522521       0.49186036
P        1.02959300      10.14050500      14.28917300       1.32764528       1.42744081      -0.13572824
P       13.16923600       3.84883500       3.73181400      -0.75314763       0.97889590      -0.32754585
S        1.36595800       8.98495400      12.35729900      -0.86588405      -0.04199375       0.28530096
S       16.12370400       8.08294100      16.35207000      -0.94714073       0.61633258      -0.44746364
S        2.63883400       9.68537200      15.48365900      -0.65602184       0.31238094      -0.46742947
S       11.81774200       5.17874300       0.43602900      -1.29739110       0.39947568      -0.14474738
S       14.09610800       2.47119400       2.53992100       0.18198535      -0.87842746      -0.19495450
S       14.51865700       5.30994300       4.01704200       0.43813758       0.48914798       0.47038121
P        7.00441500      15.82930100       5.29135700      -0.51569827      -0.74259467       0.93159873
P        6.64245300      15.32630900       9.27183500      -0.17073548       1.31255244       0.14689342
S       12.38025900       3.03353700       5.50512800       0.58114159      -0.22682378      -0.26274375
S        5.61876300      14.26442500       5.17848800       0.94496933       0.10828392      -0.34355727
S        7.53117700      16.27101500      10.91702200       0.23302982      -1.10064993      -0.75560219
S       11.76558000       4.31518400      10.31936900       2.00767278       0.79006457       0.46387254
S       10.11992200       6.88312200       4.56079800       0.18023906       0.21333668       0.21670953
S        4.74282000      15.90570000       9.15520100      -0.69261051       0.58046258      -0.90378996
P        2.21384900      11.53129300       7.04661200       0.98493116      -0.43740782       1.10707961
P        0.72917500      12.39550800       8.52572000       0.27035995       1.39472521       1.22908864
S        4.17924300      11.98288000       7.67313600      -2.19035480      -0.27872731       0.09034475
S        1.76850800      12.51039200       5.41428500      -0.14667408       0.16089882      -0.97572230
S        1.88605000       9.52541900       7.14127000       0.04660771      -0.15341879       0.04938310
S        6.49311800      13.36242300       9.44610800       1.23528841      -1.51646086       0.86390318
S        1.38540700      14.48010500       8.63494000      -0.87111749      -1.16025615       0.17877585
S        0.87874600      11.68247900      10.50460800       0.49419105       0.14755484      -1.06209596
P        2.11494300       7.54190200       2.06261500       0.61032327       0.34031509       0.89790382
P        4.23796600       8.11047100       2.84551500       0.87798796       1.19198696      -1.73926149
S        2.06841300       5.62718700       1.54082900      -0.14702933      -1.36164709      -0.94278110
S        1.65666700       8.70141300       0.47977000       0.03184855       0.28923431       0.61340020
S        1.19564600       7.73625800       3.91242500      -0.30244196       0.14634198      -0.17339853
S        4.99728900       7.18106800       4.49645700      -0.29128854       0.16298862       0.48390684
S        5.64441000       7.62147200       1.24833200      -1.20081229       0.26002942       1.08722903
S        3.84461900      10.16039100       3.13045900       1.38287823      -0.99541303      -0.05837433
P        9.18324900      10.30630500       3.17186300       0.25156443      -0.31440930      -0.06509744
P       -2.75687300      10.76245200       3.31792600      -0.34145184       0.22553522      -0.67161754
S       -4.38303500      10.96723500       2.00005100       0.47590345       0.01917247       0.29851120
S        9.02760500      12.15852700       2.25254600       0.26256422       0.79991206      -0.34985756
S        9.14394400       9.14744800       1.36203700       0.06177482      -0.13305390       0.06740276
S       -2.93386700       8.90638500       4.11036800       0.52969725      -0.57029644       0.46845631
S       -1.09849200      11.14268100       2.16052500       0.36427207      -0.79509841      -0.16495110
S       -2.69780300      12.16139700       4.76322800      -0.35594158       0.30432240       0.62725242
P        7.09114400       8.35542800       8.85851800       0.83004938      -0.10658185      -1.34067648
P        6.20907600       8.24842300      10.95683100      -1.52769030      -0.09425623      -0.73737786
S        6.57310600      10.17074900       8.15328100      -0.45500564      -0.09675818       0.26446454
S        6.31008000       6.90482100       7.69448100       0.32143928       0.87781944      -0.23438507
S        9.20388400       8.49044600       8.70231800      -0.97306827      -0.51276571       1.11298567
S        5.54884500       9.99907300      11.69047700       0.53690078       0.88574154       0.18127214
S        4.41285700       7.26364400      10.61220200       0.42529051       0.13315735       0.01048478
S        7.55123900       7.20364200      11.91403000       1.17388916      -0.87075652       0.50978953
P       12.74851600       5.32856100      12.08971700      -0.24257590      -0.67526800      -1.91724231
P       13.78103000       7.78990200       9.18117000       0.16980024       0.00407196       0.30348105
S        7.90190200      15.80659700       7.29996800      -2.06816061       0.19012326       0.55573410
S       11.04070600       6.22235500      12.72137800       0.04591016       0.66658326       0.17006285
S       14.38299500       6.87479400      11.06206900      -0.88808620      -0.63678667       0.32297574
S       -1.17757400       9.17313800       9.21385800      -0.76825216      -0.47763483      -0.09766805
S       13.86185400       6.54099900       7.57747400       0.12043126       0.09036469       0.15759196
S       11.83384900       8.41053800       9.41231300       0.92764949       0.16429299       0.05652048
Na      11.50742900       8.76071400      12.03172400      -0.00820770       0.30197353       0.26069997
Na       2.93781700      12.59603500      16.60087900      -0.25675960      -0.28359319      -0.15389209
Na       3.40726800       9.90078400       9.73948900       0.08965421      -0.14808898      -0.17342995
Na       6.46796900      10.95174000       1.59982900      -0.04550098      -0.17525872       0.11183581
Na      10.18048900       5.70759200      15.19381200      -0.00658165      -0.10494519       0.46018110
Na      -1.51627600      14.80133200       8.99284900       0.48431023       0.21593772       0.07896151
Na       5.90819900       4.70705400       8.76132300      -0.33156490      -0.59311674       0.27068112
Na      -0.85064800       9.65272600       6.33089600      -0.26890474       0.03501341      -0.06392834
Na      14.75060500       3.86831900       6.44549800       0.18028206       0.48569633      -0.10455632
Na       3.55331000       7.63415600      13.11874500       0.27863235       0.23358279       0.31415871
Na       9.14691700       6.67478500       0.47900000      -0.09450407      -0.48320801      -0.00578971
Na       3.32579600      14.67932300       6.76368100       0.20186693       0.04337928      -0.15628418
Na      13.33050300      15.83874800      17.88182200      -0.12244162      -0.19374425       0.48591722
Na       6.73562500       2.96647400       4.34591600       0.54432359       0.56500272      -0.56988331
Na       0.50728300       6.79854100      10.09212500       0.11735231       0.27054459       0.22348572
Na      -2.61174700       9.96563600      -0.16008200       0.06785751       0.18575030      -0.00201700
Na       4.81260900      16.78836200      11.99144100       0.12806076      -0.73181734       0.19700634
Na       3.51562400       5.28486100       3.66350900      -0.11153217      -0.18794757       0.48432063
Na       9.63311500      13.70802600       9.66279900       0.00907481       0.49041860       0.16181709
Na      14.41663800       4.39709300       0.51854600       0.37491033      -0.21023578       0.26749279
Na      10.79141300      12.59498500       4.33861800       0.16927260      -0.57278920       0.20046954
Na      14.89468700       3.84767800       9.78504600      -0.44614056       0.86399423      -0.01694904
Na       2.17788600       6.63388600       6.57837900      -0.05363872       0.69238552      -0.87044845
Na       7.78161700      13.72012900      17.20013000      -0.00891203      -0.06077359      -0.28167635
Na      10.07623700      15.89072700      14.48517000      -0.14587346      -0.08440438      -0.88729658
Na       5.73063700       2.39637300       0.81002500       0.63313767      -0.47278436       0.08084033
Na      11.34494100      -0.08303100       0.25334700      -0.54042581       0.13034659       0.03249214
Na       5.16275200      15.95203400      15.80132800      -0.18202589      -0.23299130      -0.34071595
Na       3.17750700       4.65760900      11.41425600      -0.16604348       0.38200464       0.18225912
Na       3.67379900      11.55874400      13.40677400       0.36513155       0.11860869      -0.02837565
Na      -0.28987800      14.32893800       5.69338200      -0.38486827      -0.29445993       0.28288716
Na       8.98611400       9.28008100       6.15950800      -0.23506546      -0.10728255      -0.41637514
Na       0.60594100      12.60894400       0.40546800      -0.16233288       0.30780076       0.06456517
Na       7.70743900      14.35012200       2.59544200      -0.06642919       0.29555514       0.15572179
Na      -1.17009700      10.35496100      11.87302700      -0.04338877      -0.11313884      -0.27264996
Na      11.00448700       3.96614100       7.72037800       0.40378354       0.25128101       0.08476976
Na      -3.21493200      13.42855900       2.40548900      -0.12480065       0.26200856      -0.53354413
Na      13.30097600       7.66715500      16.67910600      -0.19794659       0.14909429       0.29009361
Na       9.64310200       6.36712800      10.37457100       0.07521254      -0.12366371      -0.59895418
Na       5.13581000       9.81134800       5.69335800      -0.30040803      -0.18760561       0.05377537
Na      -3.03394200      16.68519000      13.29952000       0.39380078      -0.09308325      -0.02669431
Na      10.07211600       3.65588300      11.96903200      -0.64235964      -0.13132649       0.63323729
Na       6.83319800      13.97288100      12.09572400      -0.40525496      -0.35788689       0.65456765
Na      -6.45336600      16.18643100       6.42603400       1.07938111      -0.19000857      -0.15715911
Na       6.76125700       7.78296000      14.35007100      -0.64349034       0.01155366      -0.07229911
Na      12.07720200       7.70893400       2.08894800      -0.38567970       0.08024424       0.40729786
Na       3.99815700      15.61575100       3.32657000       0.23207263      -0.16604709       0.20998170
Na      10.14393000       4.23390400       3.96778100       0.08711287       0.20772502      -0.35241564
Na       1.17298300      14.23769100      11.64233900       0.37117477       0.19805250       0.18199598
Na       7.81574000       7.49486100       3.68739000      -0.55488482      -0.12828461      -0.39732575
Na       6.67636200      12.44486200       7.10611800       0.57638123       0.52776635      -1.24971974
Na      11.32633400      11.39195500      14.63830500      -0.34970091      -0.02003494       0.10604058
Na       1.32779600       6.10674700      16.52490800       0.29117993      -0.34930161       0.09680391
Na      14.95329600       6.95102800      13.92179600      -0.16248462       0.02570046       0.03758726
Na       1.42486800      10.54120800       3.44415800      -0.85870514       0.16278631       0.06378867
Na      -1.57950600      13.01840600      14.00633700      -0.08676768       0.30264939       0.45307980
Na       8.36095400      10.91203200      10.32025200      -0.21065837      -0.25886249      -0.00354586
Na       1.81254100       2.91747800       2.18167900       0.15016223      -0.06721667       0.36714127
Na      -0.99343000       8.06502700       2.40062100       0.05299298       0.06674563       0.16118517
Na       3.54902800      13.24048600      10.01622400       0.33316480       0.32455705       0.24978658
Na       6.98868400      10.48130500      17.69261500      -0.08982411       0.10295998       0.24530545
Na      11.84218100       8.06129400       6.34273900       0.11903733      -0.91798418      -0.20898662
Na       6.54979000       4.08577900      15.79091800      -0.11209949      -0.25768230      -0.44876222
Na      13.19700500      11.32435600       8.94121700      -0.21648649      -0.25423435       0.20888837
192
Lattice="16.538458 0.0 0.0 -7.790146 14.587084 0.0 2.851953 4.754755 18.212226" Properties=species:S:1:pos:R:3:forces:R:3 energy=-1625859.515369124 pbc="T T T"
P        4.22518400       1.26616900       3.99745600       1.17588939       0.32016065       0.62161825
P        8.15821300       3.57448900       7.41009900       0.18659249      -1.01739647       0.32258376
S       -5.23304800      14.99594500       3.32001700      -0.72250432      -0.01901133      -0.20976104
S       -3.79884700      15.19284700       8.12224500      -0.33968764       0.22308671       0.18807081
S       -0.96966600      12.86688800       8.23735600      -0.27241611      -0.26220649       0.41453695
S        9.39296200       4.69448700       6.33908300       0.28835978       0.74748673      -0.24916056
S        6.37989200       3.07464500       6.62734200      -0.26878237      -0.10152300      -0.14815534
S        8.18131200       3.34966800       9.43162400       0.22248617       0.41369085       0.00156847
P        1.18667300      15.11012100       2.90170300      -1.65454881       0.84349499       0.56658964
P        9.35236600       2.02939400       1.13109100      -1.24330793      -1.13227477       1.20419495
S        2.21166500      13.42939800       2.53538200       0.27944944      -0.45041850      -0.60596687
S       -0.96773100      14.80232700       3.17014800       1.38558471       0.40967791      -0.64140661
S        9.58332300       1.51881600       4.57867100       0.09756976      -0.30727639      -0.13152452
S       11.36207000       2.17988700       1.17995500      -0.71682989       0.22308473      -0.60082557
S       11.22516300       5.74907800      17.74481200       0.59349142       1.12575841       1.33367502
S        8.35671200       3.73485300       1.89529100       0.50075873      -0.35647914      -1.03630628
P       -0.10598900      15.74509400      14.73386300       1.17413445      -1.42119427       0.72896403
P        1.77024500      16.74280100      16.07022400      -1.67902614       0.87177074      -0.36152800
S       -0.09179000      16.39103700      12.79264400       0.04567584       0.58646757      -0.61823530
S       -3.89321200      18.56377000      17.21355200      -0.67315219       0.62023490       0.56664477
S       -1.78935300      16.25773500      15.81721900      -0.69754058      -0.03029201      -0.21467244
S        2.77779000      15.28577100      16.99774200       0.14479762      -0.51047396       0.10731053
S        2.87732000      17.85434400      14.81141200       0.87969302       0.12487737      -0.61498413
S        0.86539900      18.02188500      17.41044100      -0.18527704      -0.07983913      -0.01168777
P        7.22954600      18.27813300      15.15693300       1.13454646      -1.26610797      -0.79276353
P        8.17591600      17.28488500      17.03438400      -0.86383763       0.24165534       0.58390733
S       17.17544700       4.39155400      12.23403600      -0.28968266      -0.42555451      -2.29441895
S       13.69716700       5.11092400      15.61344100       0.05357443       0.22082994      -0.29647381
S        6.68853600      16.56582300      14.13078800       0.31634500       0.97702649      -0.25751068
S        9.91968200      16.36935400      16.69400100      -0.39882928      -0.46998067      -0.46971194
S        8.37714400      18.89439400      18.22216800       0.65667471       1.26007526       0.08569337
S        6.59579800      16.28421900      17.91179100       0.57832429      -0.71890760      -0.76320704
P       -4.44387800      16.49473500       9.50057800      -0.29178155      -0.06669255       0.53154936
P        1.47625800       4.36343100       7.63948700      -0.17595532      -0.89394079      -0.05316799
S        4.69698300       3.14781100       3.24547700      -0.81859948      -0.31199686      -0.20936137
S        1.32029700       2.78339700       9.10305600       0.74304420       0.15152064       0.28916213
S        4.81934500       3.05296700      10.33323800      -0.64882604      -0.38814501       0.00141973
S        3.16050900       5.43096900       7.96845000      -0.65035603       0.45293585      -0.23935498
S        1.42271000       3.24017500       5.90540600      -0.21236836       1.12565181      -0.42666681
S       -0.31152800       5.28681900       7.83777000       0.28376741       0.13168189       0.13339704
P       11.40084100      13.80437700      12.34491100       0.58022437       0.71607154      -2.69705371
P       10.44822500      10.91095200       7.44880500      -0.80171194       0.71940960       0.34481472
S        9.84223700      12.66907100      11.50697600       0.51126282      -0.39199417       0.98672347
S       10.72568300      15.58948600      11.09676800       0.64998855      -0.16947197       0.07614371
S       -3.25550900      13.47400700      11.53392000      -0.18480907      -0.24193836       0.75778704
S        7.45195500       9.51103100       4.34236800       0.81769921       0.98807170      -0.00773658
S       10.59563900      12.95823400       6.96031900       0.10995741      -0.80160499       0.24839534
S       12.04970300      10.00362700       6.71405800       0.47941584      -0.18094752      -0.59162128
P        3.59958200       5.32277000      14.80722700       1.04537287       0.12127404      -0.93130324
P        4.41215600       5.87137700      17.83798900       1.91585109      -1.36117465       0.38771672
S        4.95258700       5.23457900      13.14736000      -0.52106229       0.03734688       1.35615552
S        1.39868500       7.28986500      13.30326400       0.17302444      -0.44070870      -0.09811439
S       17.10521600       4.46366400      14.19150800      -0.70234217      -0.02518366       2.55309923
S        3.49096400       1.04635000       0.28779900      -0.46145650       0.28282958      -0.21353623
S        4.54227100       6.90968200      16.04687300       0.00336550       0.31103655      -1.69609315
S        0.22356500       2.15451600       0.63810800      -1.13127529       0.27940007       1.01467654
P       -0.63252900       9.93443300      15.52019600      -0.37761843      -0.78953229       1.06939088
P       15.27929600      11.10884000      17.75435400       1.43386565       0.72097286      -0.88417624
S       14.59948300      10.30734800      13.93544900      -0.03723590      -0.23082972       0.97960244
S        1.51529100      12.56094800      14.42804700      -0.56862768      -1.26533879      -0.08736217
S        4.58868400      13.91048300      12.65117100      -0.30801358       0.79686270      -0.02564602
S       14.19419300      12.67760500      17.11914800      -0.52742242       0.32958638      -0.41488480
S        8.90963800       9.83022400      17.89654100      -0.45792724       0.74952311      -0.10751142
S       -2.30452700       7.06488300       0.35698600      -0.96241461      -0.36442912       0.15037116
P        9.35577200       9.06037800      16.12866800       1.13551106      -0.78973294      -1.69397455
P        7.46177300      11.83190500      14.54700800      -1.68096799      -1.10719411      -2.40176384
S        8.73400200       9.91451700      14.13251500       0.32054023       0.51153440       2.07292728
S        8.60420200       7.17894400      15.85826200      -0.15973907      -0.02719024       0.57489349
S       11.50737700       9.25808300      15.86401500      -0.73174733       0.26837891      -0.31079938
S       11.63321000      14.49760200      14.20168100      -0.17625656      -0.10949271       0.77791085
S        5.96836300      11.34468200      15.89585200       0.30404755      -0.38082912       0.34253758
S        8.43203700      13.50060700      14.93564700       0.91581441       0.95892528       1.13012367
P        1.39269600      10.50122800      14.62958700      -0.16700138       1.05903391       0.22427906
P       13.44573700       3.77971400       4.35299700      -0.17133513       0.72542111      -1.46686289
S        1.24753800       9.24625600      12.86531700       0.25391976       1.46177332      -0.96555342
S       16.02750700       7.89975300      16.35997700      -0.41651159       1.89013481      -0.78456564
S        2.91060300       9.83784900      15.74706700       0.18793842      -0.49348187       0.29689345
S       11.58557200       5.25338000       0.92781900      -0.43122967      -0.75220136      -0.24648435
S       14.84830100       3.51954700       2.84250100      -0.00415718      -0.83175028      -0.04553861
S       13.98134600       5.25674000       5.57422000       0.08594501       0.44114795       0.91706989
P        7.54063200      14.65608600       3.99857700       1.02517511       0.64428986       1.30179355
P        6.37146800      15.49211500       8.96044600       3.30190223      -0.06796724       0.38021660
S       12.44639600       2.24146500       5.06714700       0.23299248      -0.61694619       0.51724350
S        6.22517100      13.20433900       3.60776000      -1.14647780      -0.92155916      -0.43137654
S        7.40569600      16.55309600      10.44907300      -0.29731802      -0.42360341       0.09277340
S       11.86253700       4.14034500      10.70568800      -0.37936334       0.22759655      -0.25861060
S       10.07982900       7.07079500       3.81607900      -0.15934289      -0.93483577       1.48352141
S        4.61366700      16.04099400       8.52357800      -2.90570296       1.57299942      -0.83537817
P        2.12510200      11.80574300       7.25442400       2.06988276       1.40113402      -0.72806016
P        0.99698700      12.83662000       8.83901000      -0.22637902       1.20580870      -0.03863154