LAMMPS (15 Sep 2022)
  using 1 OpenMP thread(s) per MPI task
Reading data file ...
  orthogonal box = (0 0 0) to (22.384999 22.384815 22.385185)
  4 by 3 by 6 MPI processor grid
  reading atoms ...
  432 atoms
Finding 1-2 1-3 1-4 neighbors ...
  special bond factors lj:    0        0        0       
  special bond factors coul:  0        0        0       
     0 = max # of 1-2 neighbors
     0 = max # of 1-3 neighbors
     0 = max # of 1-4 neighbors
     1 = max # of special neighbors
  special bonds CPU = 0.009 seconds
  read_data CPU = 0.058 seconds
New timer settings: style=normal  mode=nosync  timeout=00:00:00
162 atoms in group Li_atoms
54 atoms in group P_atoms
216 atoms in group S_atoms
LAMMPS (15 Sep 2022)
  using 1 OpenMP thread(s) per MPI task
Reading data file ...
  orthogonal box = (0 0 0) to (22.160819 22.160854 22.159878)
  4 by 6 by 3 MPI processor grid
  reading atoms ...
  416 atoms
Finding 1-2 1-3 1-4 neighbors ...
  special bond factors lj:    0        0        0       
  special bond factors coul:  0        0        0       
     0 = max # of 1-2 neighbors
     0 = max # of 1-3 neighbors
     0 = max # of 1-4 neighbors
     1 = max # of special neighbors
  special bonds CPU = 0.002 seconds
  read_data CPU = 0.031 seconds
New timer settings: style=normal  mode=nosync  timeout=00:00:00
156 atoms in group Li_atoms
52 atoms in group P_atoms
208 atoms in group S_atoms
Neighbor list info ...
  update: every = 1 steps, delay = 0 steps, check = yes
  max neighbors/atom: 2000, page size: 100000
  master list distance cutoff = 8
  ghost atom cutoff = 8
  binsize = 4, bins = 6 6 6
  1 neighbor lists, perpetual/occasional/extra = 1 0 0
  (1) pair quip, perpetual
      attributes: full, newton on
      pair build: full/bin
      stencil: full/bin/3d
      bin: standard
Setting up Verlet run ...
  Unit style    : metal
  Current step  : 0
  Time step     : 0.002
  Walltime left : 23:59:54.72
Per MPI rank memory allocation (min/avg/max) = 8.036 | 8.036 | 8.036 Mbytes
   Step         TotEng         PotEng         KinEng          Temp          Press     
         0  -3569936.3     -3569936.3      0              0              38867.844    
LAMMPS (15 Sep 2022)
  using 1 OpenMP thread(s) per MPI task
LAMMPS (15 Sep 2022)
  using 1 OpenMP thread(s) per MPI task
Reading data file ...
Reading data file ...
  orthogonal box = (0 0 0) to (22.610975 22.610831 22.610811)
  orthogonal box = (0 0 0) to (22.160822 22.161363 22.160702)
  6 by 4 by 3 MPI processor grid
  reading atoms ...
  4 by 6 by 3 MPI processor grid
  reading atoms ...
  440 atoms
  424 atoms
Finding 1-2 1-3 1-4 neighbors ...
  special bond factors lj:    0        0        0       
  special bond factors coul:  0        0        0       
Finding 1-2 1-3 1-4 neighbors ...
  special bond factors lj:    0        0        0       
  special bond factors coul:  0        0        0       
     0 = max # of 1-2 neighbors
     0 = max # of 1-2 neighbors
     0 = max # of 1-3 neighbors
     0 = max # of 1-3 neighbors
     0 = max # of 1-4 neighbors
     1 = max # of special neighbors
     0 = max # of 1-4 neighbors
  special bonds CPU = 0.003 seconds
  read_data CPU = 0.030 seconds
     1 = max # of special neighbors
  special bonds CPU = 0.003 seconds
  read_data CPU = 0.031 seconds
New timer settings: style=normal  mode=nosync  timeout=00:00:00
New timer settings: style=normal  mode=nosync  timeout=00:00:00
165 atoms in group Li_atoms
159 atoms in group Li_atoms
53 atoms in group P_atoms
55 atoms in group P_atoms
220 atoms in group S_atoms
212 atoms in group S_atoms
Neighbor list info ...
  update: every = 1 steps, delay = 0 steps, check = yes
  max neighbors/atom: 2000, page size: 100000
  master list distance cutoff = 8
  ghost atom cutoff = 8
  binsize = 4, bins = 6 6 6
  1 neighbor lists, perpetual/occasional/extra = 1 0 0
  (1) pair quip, perpetual
      attributes: full, newton on
      pair build: full/bin
      stencil: full/bin/3d
      bin: standard
Setting up Verlet run ...
  Unit style    : metal
  Current step  : 0
  Time step     : 0.002
  Walltime left : 23:59:54.80
Per MPI rank memory allocation (min/avg/max) = 8.049 | 8.05 | 8.052 Mbytes
   Step         TotEng         PotEng         KinEng          Temp          Press     
         0  -3437686.6     -3437686.6      0              0              41855.632    
       100  -3569941.2     -3570011        69.812081      1253.1085      15319.927    
       100  -3437693.3     -3437771.8      78.570889      1464.7008      13651.648    
Neighbor list info ...
  update: every = 1 steps, delay = 0 steps, check = yes
  max neighbors/atom: 2000, page size: 100000
  master list distance cutoff = 8
  ghost atom cutoff = 8
  binsize = 4, bins = 6 6 6
  1 neighbor lists, perpetual/occasional/extra = 1 0 0
  (1) pair quip, perpetual
      attributes: full, newton on
      pair build: full/bin
      stencil: full/bin/3d
      bin: standard
Setting up Verlet run ...
  Unit style    : metal
  Current step  : 0
  Time step     : 0.002
  Walltime left : 23:59:49.99
Neighbor list info ...
  update: every = 1 steps, delay = 0 steps, check = yes
  max neighbors/atom: 2000, page size: 100000
  master list distance cutoff = 8
  ghost atom cutoff = 8
  binsize = 4, bins = 6 6 6
  1 neighbor lists, perpetual/occasional/extra = 1 0 0
  (1) pair quip, perpetual
      attributes: full, newton on
      pair build: full/bin
      stencil: full/bin/3d
      bin: standard
Setting up Verlet run ...
  Unit style    : metal
  Current step  : 0
  Time step     : 0.002
  Walltime left : 23:59:49.92
Per MPI rank memory allocation (min/avg/max) = 8.049 | 8.051 | 8.053 Mbytes
   Step         TotEng         PotEng         KinEng          Temp          Press     
         0  -3636030.7     -3636030.7      0              0              32886.681    
Per MPI rank memory allocation (min/avg/max) = 8.049 | 8.051 | 8.052 Mbytes
   Step         TotEng         PotEng         KinEng          Temp          Press     
         0  -3503796.5     -3503796.5      0              0              46859.9      
       200  -3569950.9     -3570023.4      72.501828      1301.3888      9031.8068    
       200  -3437704.7     -3437782        77.331767      1441.6014      8672.6645    
       300  -3437718.8     -3437788.5      69.683848      1299.0306      11971.577    
       300  -3569962.1     -3570029.1      66.989658      1202.4468      5456.157     
       100  -3503803       -3503888.3      85.249119      1559.1392      14344.741    
       100  -3636036.6     -3636119.7      83.09172       1464.295       11531.663    
       400  -3437732.3     -3437799.7      67.38597       1256.1941      3666.4332    
       400  -3569973       -3570034.4      61.441029      1102.8503      4844.4097    
       200  -3503815.1     -3503894.5      79.390305      1451.9861      6561.5542    
       500  -3437745.4     -3437808.7      63.302302      1180.0673      5358.0699    
       500  -3569983.5     -3570040.9      57.446717      1031.1535      4192.211     
       200  -3636047.5     -3636123.1      75.59753       1332.2277      6301.5338    
       600  -3437757.4     -3437816.3      58.843539      1096.948       2873.1411    
       600  -3569993.1     -3570046.7      53.582793      961.79704      4237.092     
       300  -3503828.9     -3503903.3      74.351583      1359.8319      10756.004    
       700  -3437768.5     -3437823        54.521496      1016.3775      369.51448    
       300  -3636060.2     -3636132.8      72.625505      1279.8528      6444.6078    
       700  -3570002.2     -3570051.2      48.981304      879.20153      2204.5315    
       800  -3437778.5     -3437827.9      49.373409      920.40798     -426.35139    
       800  -3570010.6     -3570058.4      47.748083      857.06553     -898.29155    
       400  -3503842.7     -3503909.1      66.404985      1214.4948      393.52786    
       400  -3636072.9     -3636138.8      65.914171      1161.5814      4899.0299    
       900  -3437787.5     -3437832.4      44.884323      836.72346     -4940.4116    
       900  -3570018.3     -3570060.5      42.221053      757.85679     -1123.1649    
      1000  -3437795.5     -3437837.8      42.288873      788.33966     -814.7337     
      1000  -3570024.9     -3570064.5      39.538555      709.70667     -653.6603     
       500  -3503855.3     -3503916.4      61.064076      1116.8138      3280.2253    
       500  -3636084.8     -3636146.7      61.855549      1090.0577      2143.2783    
      1100  -3437802.4     -3437840.6      38.247754      713.00602     -3747.5645    
      1100  -3570031.1     -3570067.8      36.703374      658.81592     -4097.0777    
      1200  -3437808.5     -3437844.9      36.338071      677.40616     -6972.9743    
      1200  -3570036.8     -3570069.8      33.03621       592.99129     -1526.6022    
       600  -3503867.1     -3503924.1      57.039313      1043.2041      3587.2983    
       600  -3636096.1     -3636154        57.983624      1021.8242     -2366.736     
      1300  -3437814.1     -3437846        31.897436      594.62484     -6213.6946    
      1300  -3570041.7     -3570075.6      33.943417      609.27541     -3055.212     
      1400  -3437819       -3437849.3      30.3223        565.26151     -5173.1186    
      1400  -3570046.3     -3570076.9      30.609436      549.43133      150.81377    
       700  -3503877.6     -3503929.9      52.263996      955.8673       4460.461     
       700  -3636106.4     -3636160.9      54.418717      959.00118      1002.3918    
      1500  -3437823.4     -3437850.7      27.33115       509.50115     -4631.571     
      1500  -3570050.3     -3570078.5      28.194678      506.08705     -6067.8397    
      1600  -3437827.4     -3437854.4      27.009035      503.49636     -7960.0585    
      1600  -3570054.1     -3570081.9      27.798757      498.98037     -4381.757     
       800  -3503887.2     -3503935.7      48.498307      886.99582      932.92699    
       800  -3636115.5     -3636165.5      50.048522      881.98682     -1289.9115    
      1700  -3437831       -3437856.4      25.323365      472.07248     -3889.777     
      1700  -3570057.5     -3570084.3      26.845339      481.86677     -5063.4971    
      1800  -3437834.4     -3437857.3      22.883979      426.59798     -2473.8354    
      1800  -3570060.5     -3570085        24.499311      439.75619     -7485.7962    
       900  -3503895.8     -3503939.7      43.872653      802.39624      1705.3082    
       900  -3636123.9     -3636167.4      43.565636      767.74129     -1103.6753    
      1900  -3437837.4     -3437859.2      21.844629      407.22265     -5218.4895    
      1900  -3570063.3     -3570086        22.689334      407.26758     -3444.569     
      2000  -3437840.1     -3437862.9      22.820272      425.41038     -5202.7539    
      1000  -3503903.5     -3503944.5      41.022513      750.26944     -1917.2265    
      2000  -3570065.9     -3570088.6      22.726472      407.93419     -5604.7454    
      1000  -3636131.5     -3636174.4      42.96309       757.12284     -3783.2044    
      2100  -3437842.5     -3437863.9      21.430437      399.50139     -6660.7659    
      2100  -3570068.2     -3570089.4      21.217025      380.84002     -6093.6968    
      2200  -3437844.7     -3437864.4      19.685945      366.98096     -2203.4471    
      1100  -3503910.6     -3503949.4      38.827992      710.13338      86.19078     
      2200  -3570070.2     -3570090.1      19.882329      356.88258     -2633.1657    
      1100  -3636138.4     -3636176.8      38.405592      676.80772     -835.99242    
      2300  -3437846.6     -3437865.6      19.04405       355.01489     -5495.4278    
      2300  -3570072       -3570090.9      18.830532      338.0031      -4511.0207    
      2400  -3437848.3     -3437866.1      17.818762      332.17335     -6593.8585    
      1200  -3503916.9     -3503952.7      35.867247      655.98369     -1418.5578    
      1200  -3636144.7     -3636179.7      34.981058      616.45841     -2154.1921    
      2400  -3570073.6     -3570092.5      18.852245      338.39285     -6040.9901    
      2500  -3437849.7     -3437866.7      16.972428      316.39618     -3240.6681    
      2500  -3570075.1     -3570093.2      18.086116      324.64103     -4574.9643    
      2600  -3437851       -3437868.1      17.060392      318.03599     -6788.8829    
      1300  -3503922.4     -3503955.5      33.144853      606.19325     -1876.9858    
      1300  -3636150.3     -3636184.6      34.281805      604.13573     -3511.4899    
      2600  -3570076.4     -3570094.1      17.729837      318.2459      -6982.0482    
      2700  -3437852.1     -3437869        16.875475      314.58881     -5714.9807    
      2700  -3570077.5     -3570094.7      17.237115      309.40168     -7064.712     
      2800  -3437853       -3437868.3      15.257369      284.42444     -4483.8582    
      1400  -3503927.5     -3503959.2      31.728217      580.28408     -3409.5273    
      1400  -3636155.3     -3636186.3      31.008131      546.44497     -4218.7947    
      2800  -3570078.5     -3570094.9      16.444366      295.17204     -6598.7931    
      2900  -3437853.8     -3437868.8      14.963774      278.9513      -4840.7656    
      2900  -3570079.3     -3570096.3      16.935387      303.98575     -7278.9517    
      3000  -3437854.5     -3437869.3      14.820157      276.27404     -5754.3643    
      1500  -3503932.1     -3503960        27.932159      510.85717     -3173.3618    
      1500  -3636159.7     -3636188.8      29.101788      512.85018     -3930.1938    
      3000  -3570080       -3570096.5      16.452122      295.31127     -5071.3506    
      3100  -3437854.9     -3437870.3      15.33564       285.88356     -5533.787     
      3100  -3570080.6     -3570096.1      15.514284      278.47731     -5799.8167    
      3200  -3437855.3     -3437869.9      14.653933      273.17532     -5466.018     
      1600  -3503936.2     -3503963.8      27.565893      504.15846     -3394.6998    
      1600  -3636163.7     -3636192.3      28.671185      505.26182     -5353.2064    
      3200  -3570081       -3570096.8      15.726836      282.29257     -5289.7387    
      3300  -3437855.4     -3437869.7      14.286284      266.32169     -5643.7768    
      3300  -3570081.3     -3570097.1      15.725552      282.26953     -5884.3353    
      1700  -3503939.8     -3503966.7      26.859378      491.23685     -2126.2759    
      3400  -3437855.4     -3437871        15.657648      291.88636     -6528.5262    
      1700  -3636167.3     -3636194.5      27.208288      479.48173     -3122.4255    
      3400  -3570081.5     -3570096.8      15.309135      274.79494     -5752.7954    
      3500  -3437855.2     -3437868.8      13.641528      254.3023      -6103.4439    
      3500  -3570081.5     -3570097.9      16.45531       295.36848     -4938.1221    
      1800  -3503943.2     -3503966.4      23.23614       424.97069     -3159.926     
      3600  -3437854.8     -3437869.8      15.007338      279.76342     -5901.5812    
      1800  -3636170.5     -3636195        24.446135      430.80531     -7672.7509    
      3600  -3570081.3     -3570097.4      16.107311      289.122       -5176.4537    
      3700  -3437854.3     -3437869.6      15.258393      284.44354     -4908.2026    
      3700  -3570081       -3570097        15.947503      286.25348     -3755.2864    
      1900  -3503946.1     -3503969.3      23.163093      423.63472     -3475.1138    
      3800  -3437853.7     -3437869.8      16.159947      301.25011     -5135.29      
      1900  -3636173.5     -3636197.9      24.469987      431.22565     -6913.546     
      3800  -3570080.6     -3570097.2      16.562782      297.29758     -4505.8861    
      3900  -3437852.9     -3437868.7      15.816796      294.85315     -3788.7974    
      3900  -3570080.1     -3570097.4      17.279072      310.1548      -4227.4308    
      2000  -3503948.8     -3503971.1      22.33709       408.52778     -945.12825    
      4000  -3437852.1     -3437868.7      16.643811      310.27018     -4601.923     
      2000  -3636176.1     -3636198.6      22.465609      395.90323     -5531.2666    
      4000  -3570079.5     -3570097.8      18.280254      328.12576     -3911.7495    
      4100  -3437851.2     -3437868.1      16.906373      315.1648      -6357.325     
      4100  -3570078.9     -3570096.8      17.973675      322.62274     -5048.6535    
      2100  -3503951.2     -3503972.7      21.442178      392.16054     -4409.1403    
      4200  -3437850.3     -3437868.1      17.787949      331.59895     -6282.1197    
      2100  -3636178.6     -3636200.2      21.653391      381.5898      -5863.6176    
      4200  -3570078.2     -3570096.2      18.013735      323.3418      -5111.2756    
      4300  -3437849.4     -3437867.8      18.445031      343.84812     -3059.1807    
      4300  -3570077.4     -3570096.1      18.676225      335.23334     -6035.3095    
      2200  -3636180.7     -3636201.5      20.825137      366.99379     -4894.5831    
      2200  -3503953.4     -3503972.9      19.453403      355.78741     -5909.4835    
      4400  -3437848.6     -3437867.1      18.50212       344.91236     -4121.7534    
      4400  -3570076.7     -3570094.7      17.979116      322.72041     -6263.2596    
      4500  -3437847.8     -3437866.1      18.321671      341.54847     -5491.7231    
      4500  -3570076       -3570095.3      19.277025      346.01753     -4907.0947    
      2300  -3503955.3     -3503974.2      18.973951      347.01862     -4421.7617    
      2300  -3636182.7     -3636203.2      20.502733      361.31217     -5633.7714    
      4600  -3437847.2     -3437866.3      19.09926       356.0441      -4833.3312    
      4600  -3570075.4     -3570094.7      19.267537      345.84723     -4890.0648    
      4700  -3437846.6     -3437865.4      18.798456      350.43659     -6099.4797    
      2400  -3503956.9     -3503975.1      18.185822      332.60436     -4563.7305    
      2400  -3636184.4     -3636203.3      18.895158      332.98247     -8165.4302    
      4700  -3570074.8     -3570094.7      19.816918      355.70846     -5059.1595    
      4800  -3437846.2     -3437865.2      19.03365       354.82103     -4899.5023    
      4800  -3570074.4     -3570093.8      19.370522      347.69577     -6282.0756    
      4900  -3437845.9     -3437865.4      19.437498      362.34946     -6991.6308    
      2500  -3503958.4     -3503975.9      17.526146      320.53939     -4493.6409    
      2500  -3636186       -3636204.2      18.195491      320.65249     -4107.8355    
      4900  -3570074.2     -3570094.4      20.174102      362.11983     -5269.5498    
      5000  -3437845.8     -3437866.1      20.22205       376.9749      -5034.0906    
      5000  -3570074.1     -3570093.8      19.694922      353.51866     -6955.1226    
      5100  -3437845.9     -3437865.7      19.760791      368.37621     -5336.1296    
      2600  -3503959.7     -3503976.6      16.959554      310.17687     -5678.8615    
      2600  -3636187.4     -3636205.2      17.838014      314.35281     -9263.4309    
      5100  -3570074.2     -3570095.3      21.148969      379.61844     -4210.8719    
      5200  -3437846.1     -3437866.2      20.03725       373.52991     -6692.9543    
      5200  -3570074.4     -3570093.9      19.479329      349.64884     -2983.6036    
      5300  -3437846.5     -3437865.7      19.19235       357.77947     -5539.0258    
      2700  -3503960.8     -3503977.6      16.786354      307.00919     -5721.9079    
      2700  -3636188.6     -3636206        17.419749      306.98188     -7466.3149    
      5300  -3570074.9     -3570094.8      19.910825      357.39408     -6335.9679    
      5400  -3437846.9     -3437866.1      19.161904      357.2119      -4780.2745    
      5400  -3570075.4     -3570095.4      20.036862      359.6564      -4953.9249    
      5500  -3437847.5     -3437865.1      17.610559      328.29208     -5030.4617    
      2800  -3503961.8     -3503977.9      16.144167      295.2641      -4937.7288    
      2800  -3636189.6     -3636206        16.412268      289.22741     -6584.7025    
      5500  -3570076       -3570095.5      19.544577      350.82002     -4139.9597    
      5600  -3437848.1     -3437867.2      19.108607      356.21835     -6052.092     
      5600  -3570076.7     -3570095.7      19.004966      341.13414     -4240.2186    
      5700  -3437848.8     -3437866.4      17.607318      328.23166     -4462.0883    
      2900  -3503962.6     -3503978.9      16.346994      298.97363     -5469.2216    
      2900  -3636190.5     -3636207.4      16.915501      298.0957      -8124.3428    
      5700  -3570077.3     -3570096.5      19.214983      344.90389     -7362.1973    
      5800  -3437849.4     -3437867.6      18.239144      340.01003     -4519.0775    
      5800  -3570078       -3570097.4      19.42919       348.74886     -5189.7872    
      5900  -3437850       -3437867.3      17.312949      322.7441      -5996.5577    
      3000  -3503963.2     -3503978.4      15.242373      278.771       -7185.3742    
      3000  -3636191.2     -3636206.7      15.484763      272.88232     -5222.1445    
      5900  -3570078.6     -3570097        18.442133      331.03144     -6749.2406    
      6000  -3437850.6     -3437868.7      18.094221      337.3084      -5180.8113    
      6000  -3570079.1     -3570096.9      17.817613      319.82147     -5945.8346    
      6100  -3437851.1     -3437868.4      17.348348      323.40401     -6919.8535    
      3100  -3503963.6     -3503978.8      15.143418      276.96118     -7139.9261    
      3100  -3636191.7     -3636207.1      15.412971      271.61716     -6501.674     
      6100  -3570079.5     -3570097.9      18.400865      330.29069     -7001.7597    
      6200  -3437851.5     -3437868.2      16.666942      310.70139     -8288.3218    
      6200  -3570079.9     -3570098.2      18.247735      327.54205     -3823.9268    
      6300  -3437851.8     -3437868.2      16.379389      305.34088     -3739.1198    
      3200  -3503963.9     -3503978.7      14.766644      270.07029     -7492.7992    
      3200  -3636192.1     -3636208.2      16.055215      282.93519     -6221.1759    
      6300  -3570080.2     -3570097.2      16.954509      304.32897     -6137.1117    
      6400  -3437852.1     -3437869        16.918509      315.39103     -6823.1692    
      6400  -3570080.4     -3570097.2      16.830235      302.09828     -6365.2025    
      6500  -3437852.2     -3437868.9      16.682876      310.99842     -4229.0341    
      3300  -3503964       -3503979.2      15.19817       277.96255     -6442.0385    
      3300  -3636192.4     -3636209.3      16.904925      297.90931     -6986.997     
      6500  -3570080.5     -3570097.3      16.836251      302.20628     -5745.1314    
      6600  -3437852.2     -3437868.9      16.66384       310.64355     -5236.5701    
      6600  -3570080.5     -3570097.5      17.075021      306.49213     -7185.2021    
      6700  -3437852.1     -3437869.3      17.160793      319.90764     -6055.5115    
      3400  -3503963.9     -3503979.1      15.181977      277.6664      -7969.3689    
      3400  -3636192.4     -3636208.4      15.969748      281.42904     -7349.2116    
      6700  -3570080.3     -3570097.4      17.130564      307.48912     -7453.7655    
      6800  -3437851.9     -3437868.2      16.26484       303.20549     -5297.4468    
      6800  -3570080.1     -3570097.3      17.250036      309.6336      -4360.6552    
      6900  -3437851.6     -3437868.7      17.136299      319.45103     -5839.605     
      3500  -3636192.4     -3636208.5      16.136748      284.37201     -6048.5429    
      3500  -3503963.7     -3503979.5      15.811804      289.18543     -5668.6123    
      6900  -3570079.7     -3570096.6      16.911095      303.5497      -6660.7061    
      7000  -3437851.1     -3437869.3      18.162198      338.5756      -4998.1518    
      7100  -3437850.6     -3437867.8      17.21107       320.84489     -5869.0145    
      7000  -3570079.2     -3570097.5      18.313791      328.72774     -4933.6642    
      3600  -3636192.1     -3636208.8      16.720168      294.65341     -8158.6598    
      3600  -3503963.3     -3503979.3      15.93457       291.43073     -6145.6358    
      7200  -3437850       -3437868        18.06092       336.68762     -5198.7061    
      7100  -3570078.7     -3570097        18.364673      329.64105     -4486.4067    
      7300  -3437849.4     -3437867.8      18.466107      344.24101     -3293.0459    
      7200  -3570078.1     -3570096.7      18.650124      334.76482     -5377.4745    
      3700  -3636191.8     -3636208.2      16.466284      290.1793      -6618.1617    
      3700  -3503962.8     -3503978.9      16.152987      295.4254      -6746.6443    
      7400  -3437848.7     -3437867.2      18.444022      343.82932     -5930.4506    
      7300  -3570077.4     -3570095.8      18.367614      329.69385     -6128.6116    
      7500  -3437848.1     -3437865.8      17.619768      328.46375     -4673.6712    
      3800  -3636191.3     -3636208.5      17.228019      303.60309     -9357.2908    
      7400  -3570076.8     -3570095.7      18.960127      340.3293      -4856.0144    
      3800  -3503962.1     -3503979.1      16.948476      309.97427     -5200.6947    
      7600  -3437847.6     -3437866.5      18.926348      352.82072     -5713.5921    
      7500  -3570076.1     -3570096.2      20.058832      360.05076     -4325.3933    
      3900  -3636190.7     -3636208        17.303043      304.9252      -4689.3937    
      7700  -3437847       -3437867        19.928115      371.49544     -5121.9814    
      7600  -3570075.5     -3570095.1      19.688712      353.40721     -5339.2229    
      3900  -3503961.4     -3503976.8      15.384548      281.37126     -3729.0976    
      7800  -3437846.6     -3437866.2      19.680304      366.8758      -4441.1323    
      7700  -3570074.9     -3570094.3      19.434307      348.8407      -7973.7787    
      4000  -3636190       -3636207.9      17.876921      315.03845     -7488.6228    
      7900  -3437846.1     -3437866.6      20.432087      380.89038     -5443.309     
      4000  -3503960.6     -3503976.7      16.180638      295.93112     -7068.4918    
      7800  -3570074.3     -3570095.1      20.737949      372.24074     -4789.5009    
      8000  -3437845.8     -3437865.1      19.2781        359.37801     -5470.5815    
      7900  -3570073.9     -3570095        21.156886      379.76053     -4886.4023    
      4100  -3636189.2     -3636207        17.82672       314.15378     -6974.1638    
      8100  -3437845.7     -3437865.9      20.199141      376.54785     -4742.297     
      4100  -3503959.7     -3503978        18.2703        334.14939     -3313.9098    
      8000  -3570073.5     -3570094        20.490169      367.79315     -3792.2674    
      8200  -3437845.6     -3437866.5      20.875002      389.14709     -5046.9556    
      8100  -3570073.2     -3570093.6      20.38706       365.94237     -6240.9242    
      4200  -3636188.4     -3636206.9      18.495188      325.93394     -7256.0247    
      8300  -3437845.7     -3437866.7      20.954011      390.61996     -4264.9642    
      4200  -3503958.8     -3503977.3      18.509172      338.51817     -5525.2219    
      8200  -3570073       -3570093.5      20.433639      366.77845     -4320.7905    
      8400  -3437846       -3437866.7      20.766367      387.12194     -6576.5525    
      8300  -3570073       -3570094.5      21.47195       385.41586     -7285.6458    
      4300  -3636187.6     -3636206.1      18.549394      326.8892      -6163.2878    
      8500  -3437846.3     -3437867        20.639288      384.75297     -5255.8055    
      4300  -3503958       -3503976        17.981846      328.87378     -6526.8448    
      8400  -3570073.1     -3570094.5      21.449747      385.01733     -6499.7726    
      8600  -3437846.8     -3437867.9      21.079831      392.96546     -5454.9328    
      8500  -3570073.2     -3570092.7      19.466555      349.41955     -5300.7789    
      4400  -3636186.8     -3636205.9      19.125938      337.04942     -7548.906     
      8700  -3437847.3     -3437867        19.677516      366.82382     -6640.4065    
      4400  -3503957.2     -3503975.8      18.648344      341.06352     -3286.2313    
      8600  -3570073.5     -3570093.7      20.17856       362.19984     -6422.2571    
      8800  -3437847.9     -3437866.6      18.737466      349.29962     -3778.3886    
      8700  -3570073.8     -3570094.5      20.621778      370.15549     -7661.5871    
      4500  -3636186       -3636205.4      19.412501      342.09942     -7753.0618    
      8900  -3437848.5     -3437867.3      18.83418       351.10255     -6918.5478    
      4500  -3503956.5     -3503975.2      18.768629      343.26344     -6284.4109    
      8800  -3570074.2     -3570093.9      19.70637       353.72416     -5420.6934    
      9000  -3437849.1     -3437868.1      19.081078      355.70516     -4443.7332    
      8900  -3570074.7     -3570094.4      19.71208       353.82665     -7515.2293    
      4600  -3636185.3     -3636204.6      19.334376      340.72265     -7950.1745    
      9100  -3437849.6     -3437868.2      18.607527      346.87734     -5829.693     
      4600  -3503955.9     -3503975.1      19.274439      352.51431     -4254.88      
      9000  -3570075.2     -3570095.6      20.427842      366.6744      -1236.3442    
      9200  -3437850.1     -3437867.5      17.446117      325.2266      -4591.5563    
      9100  -3570075.7     -3570095.6      19.900579      357.21016     -6425.7136    
      4700  -3636184.7     -3636205.2      20.4386        360.18199     -7412.6038    
      9300  -3437850.5     -3437868.9      18.329901      341.70189     -6105.8613    
      4700  -3503955.4     -3503975.8      20.431892      373.68321     -3065.5591    
      9200  -3570076.2     -3570095.5      19.254118      345.60636     -5489.4088    
      9400  -3437850.9     -3437868.8      17.935075      334.34163     -5940.1839    
      9300  -3570076.7     -3570096.1      19.346763      347.26931     -5267.8209    
      4800  -3636184.3     -3636204.4      20.137742      354.88007     -6523.8871    
      4800  -3503955       -3503974.2      19.140558      350.06573     -3305.9424    
      9500  -3437851.2     -3437869.7      18.44211       343.79367     -6015.9044    
      9400  -3570077.2     -3570095.5      18.285142      328.2135      -7326.7653    
      9600  -3437851.5     -3437869.9      18.40492       343.10038     -3969.7594    
      9500  -3570077.6     -3570096.6      19.025837      341.50877     -6173.3972    
      4900  -3636183.9     -3636203        19.04143       335.56017     -5436.3239    
      4900  -3503954.8     -3503974.1      19.339472      353.7037      -5296.9706    
      9700  -3437851.6     -3437869.7      18.104914      337.50773     -5517.239     
      9600  -3570077.9     -3570096.6      18.724789      336.10504     -6955.86      
      9800  -3437851.8     -3437870.4      18.691348      348.4399      -3951.3287    
      9700  -3570078.1     -3570096.7      18.51739       332.38228     -7753.0043    
      5000  -3636183.8     -3636204.3      20.521869      361.64941     -7783.0811    
      5000  -3503954.7     -3503974.2      19.438816      355.52063     -4332.2749    
      9900  -3437851.8     -3437869.1      17.320803      322.89051     -6060.9966    
      9800  -3570078.3     -3570096.5      18.205973      326.79243     -5727.6927    
     10000  -3437851.7     -3437869.8      18.026904      336.05349     -6847.5912    
      5100  -3636183.7     -3636204.5      20.803883      366.61924     -6585.4483    
      9900  -3570078.3     -3570096.3      18.079504      324.52235     -5915.9597    
      5100  -3503954.8     -3503974.2      19.333857      353.60102     -4974.2854    
     10100  -3437851.6     -3437869.7      18.11793       337.75037     -4304.144     
     10000  -3570078.1     -3570097        18.866107      338.64167     -6184.4651    
     10200  -3437851.4     -3437870.1      18.705957      348.71225     -5248.0991    
      5200  -3636183.9     -3636204        20.140995      354.9374      -7076.3383    
     10100  -3570077.9     -3570096.8      18.83638       338.10807     -6621.4842    
      5200  -3503955.1     -3503975.6      20.504087      375.0036      -3609.2449    
     10300  -3437851.1     -3437870        18.920441      352.7106      -6577.8164    
     10200  -3570077.6     -3570096        18.443336      331.05304     -4962.9348    
     10400  -3437850.7     -3437870        19.304794      359.87563     -3999.9173    
      5300  -3636184.1     -3636204.1      20.01665       352.74612     -6551.8924    
     10300  -3570077.2     -3570097.1      19.962941      358.32954     -6581.5201    
      5300  -3503955.5     -3503975.2      19.786899      361.88679     -4090.9936    
     10500  -3437850.2     -3437867.6      17.384658      324.08089     -5700.1072    
     10400  -3570076.7     -3570096.5      19.816853      355.7073      -5829.8929    
     10600  -3437849.7     -3437869.4      19.684877      366.96104     -4748.2922    
      5400  -3636184.4     -3636204.8      20.397908      359.46488     -5311.9907    
     10500  -3570076.1     -3570095.6      19.505021      350.11        -7182.5086    
      5400  -3503956       -3503974.9      18.929098      346.19828     -4414.5552    
     10700  -3437849.2     -3437870        20.789051      387.5448      -6855.226     
     10600  -3570075.5     -3570095.9      20.362406      365.49984     -6611.5959    
     10800  -3437848.7     -3437868.4      19.682778      366.92192     -6888.6874    
      5500  -3636184.9     -3636204.3      19.397849      341.84121     -5610.5575    
      5500  -3503956.6     -3503976.3      19.757634      361.35155     -4875.0104    
     10700  -3570074.9     -3570094.9      20.050687      359.90456     -5407.9706    
     10900  -3437848.2     -3437867.5      19.289531      359.59109     -3341.7945    
     10800  -3570074.2     -3570093.8      19.556894      351.0411      -6431.3334    
     11000  -3437847.8     -3437867        19.234454      358.56436     -5888.2946    
      5600  -3636185.4     -3636204        18.616022      328.06336     -6321.6197    
      5600  -3503957.3     -3503977.2      19.92976       364.4996      -5476.3232    
     10900  -3570073.6     -3570094.7      21.104072      378.81254     -5533.8347    
     11100  -3437847.4     -3437866.9      19.573389      364.88271     -5891.51      
     11000  -3570073       -3570094.5      21.472164      385.4197      -6876.4033    
     11200  -3437847       -3437866.7      19.707449      367.38183     -4406.6841    
      5700  -3636186       -3636205        19.054115      335.78372     -5255.7134    
      5700  -3503958       -3503976.6      18.536405      339.01624     -4623.9525    
     11100  -3570072.5     -3570095        22.528721      404.38461     -3975.805     
     11300  -3437846.8     -3437866.6      19.867033      370.35676     -4237.4362    
     11200  -3570072.1     -3570094.7      22.579023      405.28753     -5428.6633    
     11400  -3437846.6     -3437867.2      20.659187      385.12392     -4853.9176    
      5800  -3636186.6     -3636206.1      19.55532       344.61626     -7822.9718    
      5800  -3503958.8     -3503977        18.243032      333.65069     -4043.1718    
     11300  -3570071.8     -3570094.3      22.460309      403.15664     -5712.4699    
     11500  -3437846.4     -3437866.7      20.275806      377.97702     -2900.7915    
     11400  -3570071.7     -3570093.8      22.119902      397.04642     -3151.7904    
     11600  -3437846.4     -3437867        20.567435      383.41349     -7182.2832    
      5900  -3636187.1     -3636205.2      18.036896      317.85763     -5202.668     
      5900  -3503959.5     -3503977.5      17.932738      327.97564     -5564.4069    
     11500  -3570071.7     -3570093.6      21.94585       393.92224     -9466.9879    
     11700  -3437846.4     -3437867.4      20.943472      390.42349     -3262.957     
     11800  -3437846.5     -3437867        20.500199      382.16011     -6178.7355    
     11600  -3570071.8     -3570092.6      20.764435      372.71614     -2919.716     
      6000  -3636187.7     -3636205.7      18.05956       318.25703     -7322.2277    
      6000  -3503960.2     -3503978        17.812501      325.7766      -5625.8312    
     11900  -3437846.7     -3437866.9      20.167565      375.95922     -4922.601     
     11700  -3570072       -3570092.8      20.7595        372.62757     -4547.8244    
     12000  -3437846.9     -3437867.3      20.342771      379.22536     -5731.1556    
     11800  -3570072.3     -3570092.6      20.329735      364.9134      -6038.6141    
      6100  -3636188.1     -3636205.9      17.780009      313.3306      -4834.7554    
      6100  -3503960.8     -3503978.5      17.686566      323.47335     -5487.8073    
     12100  -3437847.2     -3437867        19.812775      369.34529     -7305.3113    
     11900  -3570072.7     -3570094.6      21.959405      394.16555     -5630.7769    
     12200  -3437847.5     -3437867.5      20.052192      373.80846     -6440.576     
      6200  -3636188.5     -3636207.1      18.582125      327.466       -5760.2048    
     12000  -3570073.1     -3570093.7      20.614514      370.02511     -3220.8643    
      6200  -3503961.4     -3503978.3      16.922154      309.49286     -3036.56      
     12300  -3437847.8     -3437867.5      19.707669      367.38592     -5683.1912    
     12100  -3570073.5     -3570094.4      20.840633      374.08388     -7046.6471    
     12400  -3437848       -3437867        18.936831      353.01614     -7913.0496    
      6300  -3636188.9     -3636208.6      19.766051      348.3299      -7161.6349    
     12200  -3570073.9     -3570094.9      21.005742      377.04755     -6511.9055    
      6300  -3503961.8     -3503978.6      16.746292      306.27649     -4980.2277    
     12500  -3437848.3     -3437867.7      19.434741      362.29806     -5570.3697    
     12300  -3570074.3     -3570096.1      21.769009      390.74799     -4390.5868    
     12600  -3437848.5     -3437867.8      19.315821      360.0812      -5675.9969    
      6400  -3636189.1     -3636207.6      18.493574      325.9055      -5610.6294    
     12400  -3570074.6     -3570094.1      19.425921      348.69017     -6541.2564    
      6400  -3503962.1     -3503979.5      17.379316      317.854       -5665.874     
     12700  -3437848.7     -3437868.2      19.552142      364.48663     -4353.3602    
     12500  -3570075       -3570094.6      19.649014      352.69463     -5693.4384    
     12800  -3437848.8     -3437868.3      19.491028      363.34736     -5086.1526    
      6500  -3636189.3     -3636206.1      16.810926      296.25281     -6671.7228    
     12600  -3570075.2     -3570096.1      20.876117      374.72081     -4347.8694    
      6500  -3503962.4     -3503979        16.662461      304.74329     -3866.0983    
     12900  -3437848.9     -3437869.2      20.242519      377.35649     -9268.2771    
     12700  -3570075.4     -3570095.5      20.097056      360.73687     -6209.543     
     13000  -3437849       -3437868.1      19.035339      354.85251     -5889.9051    
      6600  -3636189.3     -3636206.9      17.621533      310.53785     -6801.9886    
     12800  -3570075.5     -3570095.8      20.285033      364.11102     -5325.7677    
      6600  -3503962.5     -3503978.8      16.312425      298.34139     -6854.4096    
     13100  -3437849       -3437868.4      19.381737      361.30998     -9397.2455    
     12900  -3570075.5     -3570096.2      20.676054      371.12974     -3864.6839    
      6700  -3636189.2     -3636207.3      18.079911      318.61567     -6176.0238    
     13200  -3437849       -3437868.7      19.690488      367.06565     -5623.5507    
      6700  -3503962.4     -3503978.4      15.969253      292.06506     -6874.7768    
     13000  -3570075.4     -3570095        19.576053      351.385       -4834.7071    
     13300  -3437848.8     -3437868.3      19.437374      362.34715     -5698.1151    
     13100  -3570075.3     -3570094.7      19.370451      347.6945      -5937.5923    
      6800  -3636189       -3636207.7      18.699711      329.53818     -7468.5118    
     13400  -3437848.7     -3437868.4      19.698944      367.22328     -6181.5595    
      6800  -3503962.3     -3503978.7      16.351464      299.05539     -4017.5836    
     13200  -3570075       -3570094.6      19.568076      351.24183     -6808.1731    
     13500  -3437848.4     -3437868.1      19.698838      367.22131     -4553.1866    
     13300  -3570074.6     -3570095.2      20.561196      369.06807     -5406.6002    
      6900  -3636188.7     -3636206.3      17.560365      309.45989     -6485.7292    
     13600  -3437848.2     -3437867.3      19.113119      356.30246     -5893.8769    
      6900  -3503962.1     -3503978.6      16.500556      301.78217     -6292.6015    
     13400  -3570074.2     -3570095.3      21.105086      378.83074     -6188.5991    
     13700  -3437847.9     -3437867.3      19.471017      362.97433     -3405.3063    
     13500  -3570073.7     -3570094        20.283586      364.08503     -6769.8272    
      7000  -3636188.3     -3636207.5      19.208492      338.50424     -5449.6639    
     13800  -3437847.5     -3437867.9      20.364929      379.63842     -4225.1669    
      7000  -3503961.7     -3503979.4      17.666058      323.09829     -5527.7225    
     13600  -3570073.2     -3570094.6      21.352676      383.27492     -5418.7323    
     13900  -3437847.2     -3437867.5      20.367197      379.68071     -7606.732     
     13700  -3570072.6     -3570092.7      20.084864      360.51803     -4180.8997    
      7100  -3636187.8     -3636207.1      19.302652      340.16359     -5794.7718    
     14000  -3437846.8     -3437866.9      20.061595      373.98375     -3637.016     
      7100  -3503961.3     -3503978.7      17.442849      319.01596     -4052.1471    
     13800  -3570072.1     -3570094.6      22.522963      404.28127     -6727.5461    
     14100  -3437846.4     -3437867.9      21.512649      401.03397     -6477.0951    
     13900  -3570071.6     -3570094        22.337953      400.96037     -3520.6821    
      7200  -3636187.3     -3636206.4      19.135778      337.22282     -6096.8667    
     14200  -3437846.1     -3437868        21.98009       409.74789     -4014.6537    
      7200  -3503960.7     -3503978.6      17.889818      327.19067     -4417.3297    
     14000  -3570071.2     -3570094.2      23.028056      413.34755     -5694.6281    
     14300  -3437845.7     -3437866.6      20.864418      388.94979     -3568.7429    
      7300  -3636186.7     -3636205.9      19.164202      337.72374     -4989.2825    
     14100  -3570070.7     -3570092.7      21.927853      393.59919     -5596.1478    
     14400  -3437845.4     -3437866.7      21.28529       396.7956      -6109.8131    
      7300  -3503960.1     -3503978.9      18.801908      343.87209     -5870.8464    
     14200  -3570070.4     -3570093.4      23.059736      413.9162      -4930.7481    
     14500  -3437845.1     -3437866.7      21.599849      402.65953     -5361.6537    
      7400  -3636186.1     -3636205.8      19.729422      347.6844      -5251.1073    
     14300  -3570070.1     -3570092.6      22.48605       403.61869     -6594.6828    
     14600  -3437844.9     -3437865.8      20.921566      390.01512     -6211.802     
      7400  -3503959.5     -3503977.9      18.444041      337.32698     -2107.0293    
     14400  -3570069.9     -3570092.6      22.705174      407.55191     -5684.7336    
     14700  -3437844.7     -3437866.9      22.1965        413.78216     -5230.3068    
      7500  -3636185.5     -3636205        19.489837      343.46227     -6141.9387    
     14500  -3570069.8     -3570093.6      23.839319      427.90951     -4134.842     
     14800  -3437844.6     -3437866.6      21.91341       408.50485     -6781.6667    
      7500  -3503958.8     -3503978.4      19.576116      358.03174     -6591.486     
     14600  -3570069.8     -3570091.9      22.166753      397.88738     -4109.3191    
     14900  -3437844.6     -3437866.9      22.313482      415.96292     -6949.2561    
      7600  -3636184.9     -3636203.3      18.38813       324.04731     -4712.359     
     14700  -3570069.9     -3570092.9      23.039982      413.56162     -4528.4271    
     15000  -3437844.6     -3437865.6      21.019662      391.84381     -7031.9937    
      7600  -3503958.1     -3503977.5      19.351513      353.92392     -4627.9693    
     14800  -3570070       -3570092.3      22.276774      399.86224     -6427.0791    
     15100  -3437844.7     -3437866.7      21.991491      409.96043     -7720.1236    
      7700  -3636184.4     -3636205.1      20.720246      365.14532     -4312.3123    
     14900  -3570070.2     -3570092.7      22.465861      403.25629     -4227.8342    
      7700  -3503957.5     -3503976.5      19.05646       348.52764     -4119.4751    
     15200  -3437844.8     -3437866.3      21.412148      399.16044     -3450.6242    
     15300  -3437845.1     -3437866.8      21.731986      405.1228      -5224.8089    
     15000  -3570070.5     -3570092        21.482004      385.59632     -5700.4787    
      7800  -3636183.9     -3636203.4      19.572711      344.92273     -6012.2346    
      7800  -3503956.9     -3503976.6      19.768286      361.54637     -2547.8204    
     15400  -3437845.3     -3437866        20.692689      385.74846     -5911.8714    
     15100  -3570070.9     -3570094.3      23.464741      421.18592     -5718.4112    
     15500  -3437845.6     -3437866.1      20.477122      381.7299      -3101.3774    
     15200  -3570071.3     -3570092.9      21.639483      388.42302     -3214.563     
      7900  -3636183.4     -3636204.5      21.114861      372.09948     -5166.0065    
      7900  -3503956.3     -3503975.4      19.049032      348.39179     -4427.4249    
     15600  -3437845.9     -3437868.1      22.206634      413.97109     -7409.4553    
     15300  -3570071.8     -3570094.6      22.79948       409.24468     -5999.6242    
     15700  -3437846.2     -3437867.5      21.319496      397.43325     -5791.8542    
     15400  -3570072.2     -3570093.3      21.102925      378.79195     -7774.3439    
      8000  -3636183.1     -3636204.7      21.656069      381.63699     -3518.1071    
     15800  -3437846.4     -3437867.5      21.063135      392.65423     -4805.4332    
      8000  -3503955.9     -3503975.6      19.7315        360.87359     -2790.2488    
     15500  -3570072.6     -3570094.5      21.87405       392.63345     -5772.5802    
     15900  -3437846.7     -3437867.4      20.684165      385.58954     -5152.806     
     15600  -3570073       -3570094.3      21.312344      382.55098     -6131.5137    
      8100  -3636182.8     -3636204.7      21.841118      384.89805     -3738.3255    
     16000  -3437846.9     -3437868.6      21.661792      403.81426     -6292.9816    
      8100  -3503955.6     -3503976.9      21.289683      389.37153     -3458.9961    
     15700  -3570073.3     -3570094.9      21.673739      389.03791     -7703.6604    
     16100  -3437847.1     -3437868.6      21.532975      401.41288     -5593.4583    
     15800  -3570073.5     -3570095.7      22.214317      398.74114     -4912.9681    
      8200  -3636182.7     -3636203.8      21.058131      371.09976     -3610.0816    
     16200  -3437847.3     -3437867.5      20.246491      377.43054     -6280.9875    
      8200  -3503955.5     -3503976.1      20.655598      377.7746      -1799.9677    
     15900  -3570073.7     -3570095.4      21.785744      391.04837     -6282.7077    
     16300  -3437847.3     -3437868.3      20.915965      389.91071     -6539.3984    
      8300  -3636182.7     -3636203.1      20.411138      359.69802     -1425.4273    
     16000  -3570073.8     -3570094.8      21.065162      378.11413     -5983.432     
     16400  -3437847.4     -3437868.4      21.072547      392.82969     -3893.2639    
      8300  -3503955.5     -3503976.6      21.120791      386.28263     -4697.0842    
     16100  -3570073.8     -3570093.8      20.039457      359.70298     -3852.0906    
     16500  -3437847.3     -3437867.3      19.9805        372.47198     -5165.5565    
      8400  -3636182.8     -3636203.2      20.327403      358.22239     -5086.5787    
     16200  -3570073.7     -3570094.5      20.799596      373.34728     -6573.875     
     16600  -3437847.2     -3437867.3      20.052165      373.80795     -5491.1748    
      8400  -3503955.6     -3503975.5      19.963715      365.12061     -3688.4197    
     16300  -3570073.6     -3570094.2      20.609056      369.92713     -6042.9155    
     16700  -3437847.1     -3437867.9      20.880225      389.24445     -5088.6876    
      8500  -3636183       -3636203.8      20.797706      366.51037     -4330.8151    
     16400  -3570073.3     -3570093.9      20.583579      369.46982     -3454.0751    
     16800  -3437846.8     -3437867.7      20.890637      389.43855     -7591.6505    
      8500  -3503955.8     -3503975.4      19.577344      358.0542      -4303.8474    
     16500  -3570073       -3570095        21.936116      393.74751     -8300.1675    
     16900  -3437846.5     -3437866.9      20.39608       380.21913     -5535.1598    
      8600  -3636183.3     -3636204.8      21.515132      379.15331     -8360.5976    
     16600  -3570072.6     -3570094.8      22.142719      397.45599     -7242.4763    
     17000  -3437846.2     -3437867.3      21.135053      393.99491     -6612.7288    
      8600  -3503956.1     -3503975.2      19.084291      349.03664     -6284.0953    
     16700  -3570072.2     -3570093.9      21.690532      389.33935     -3450.2729    
     17100  -3437845.8     -3437866.9      21.053275      392.47042     -7567.659     
      8700  -3636183.6     -3636204.8      21.214919      373.86278     -6224.451     
     16800  -3570071.8     -3570094.4      22.613334      405.90341     -9578.7842    
     17200  -3437845.4     -3437866.3      20.986881      391.23273     -6010.6323    
      8700  -3503956.5     -3503975.9      19.407119      354.94091     -4214.461     
     16900  -3570071.3     -3570094        22.707314      407.59032     -4994.3741    
     17300  -3437844.9     -3437866.4      21.525291      401.26963     -6932.7579    
      8800  -3636184       -3636204.7      20.649562      363.89969     -4068.9094    
     17000  -3570070.8     -3570092.7      21.892282      392.9607      -5301.9954    
     17400  -3437844.4     -3437866.9      22.509735      419.62141     -3903.4557    
      8800  -3503956.9     -3503976        19.086964      349.08553     -5147.5117    
     17500  -3437843.9     -3437865.5      21.559163      401.90106     -7756.3372    
     17100  -3570070.3     -3570094.3      23.955002      429.98599     -8321.2147    
      8900  -3636184.4     -3636206.1      21.676224      381.99217     -8365.5546    
     17600  -3437843.4     -3437866.8      23.314422      434.62222     -6431.8349    
      8900  -3503957.3     -3503976.5      19.166972      350.54881     -2604.9744    
     17200  -3570069.9     -3570093.4      23.50117       421.83982     -6454.8153    
     17700  -3437843       -3437864.8      21.796019      406.31648     -3414.4235    
     17300  -3570069.5     -3570092.6      23.108618      414.79362     -5382.4503    
      9000  -3636184.9     -3636205.5      20.659445      364.07385     -5043.687     
     17800  -3437842.7     -3437865.8      23.070671      430.07827     -5968.3052    
      9000  -3503957.8     -3503977.6      19.822169      362.53184     -4433.1672    
     17400  -3570069.2     -3570091.9      22.776136      408.82565     -7462.6666    
     17900  -3437842.4     -3437864.6      22.155818      413.02378     -5248.1533    
     17500  -3570068.9     -3570090.8      21.930966      393.65508     -5374.4519    
      9100  -3636185.3     -3636204.9      19.592398      345.26967     -6464.4377    
     18000  -3437842.3     -3437865.6      23.320057      434.72725     -2976.6947    
      9100  -3503958.2     -3503977        18.801728      343.86879     -4115.0681    
     17600  -3570068.7     -3570091.2      22.519055      404.21111     -5730.3129    
     18100  -3437842.2     -3437864.2      22.039271      410.85113     -5838.0065    
     17700  -3570068.6     -3570093.1      24.552711      440.71471     -5432.802     
      9200  -3636185.7     -3636205.6      19.87404       350.23294     -6810.0174    
     18200  -3437842.2     -3437864.9      22.744134      423.99103     -5529.2746    
      9200  -3503958.6     -3503978.1      19.466503      356.02701     -5220.4286    
     17800  -3570068.5     -3570092.2      23.721822      425.80048     -5882.6688    
     18300  -3437842.3     -3437865.2      22.944099      427.71873     -6373.9041    
     17900  -3570068.5     -3570092.8      24.334401      436.79609     -5081.6409    
      9300  -3636186.1     -3636205.1      18.962144      334.16294     -5233.9166    
      9300  -3503959       -3503979.1      20.114378      367.87612     -5735.0113    
     18400  -3437842.4     -3437865        22.61222       421.53193     -4815.8103    
     18000  -3570068.5     -3570091.1      22.578031      405.26972     -5050.1248    
     18500  -3437842.5     -3437864.5      21.937196      408.94828     -3643.8335    
     18100  -3570068.6     -3570092.3      23.70168       425.43893     -6253.4301    
      9400  -3636186.4     -3636206.2      19.802229      348.96745     -8458.2705    
      9400  -3503959.3     -3503977.2      17.884389      327.09139     -4619.7809    
     18600  -3437842.7     -3437865.4      22.661271      422.44632     -5648.818     
     18200  -3570068.8     -3570093        24.219253      434.72922     -6496.0042    
     18700  -3437843       -3437865.4      22.438121      418.28641     -6315.2345    
      9500  -3636186.7     -3636206.2      19.576557      344.99052     -3582.19      
     18300  -3570069       -3570091.7      22.647702      406.5203      -5346.8902    
      9500  -3503959.5     -3503977.9      18.361885      335.82441     -3460.291     
     18800  -3437843.2     -3437865.9      22.642858      422.10307     -4479.7869    
     18400  -3570069.3     -3570093.4      24.065037      431.96108     -5341.8861    
     18900  -3437843.5     -3437864.8      21.297476      397.02277     -5012.8436    
      9600  -3636186.8     -3636206.6      19.717652      347.47697     -7743.841     
     18500  -3570069.6     -3570093        23.392697      419.89276     -5553.6883    
      9600  -3503959.7     -3503977.2      17.572289      321.38332     -6161.463     
     19000  -3437843.7     -3437864.5      20.852985      388.73665     -5652.1005    
     18600  -3570070       -3570092.3      22.330354      400.82398     -3370.9161    
     19100  -3437843.9     -3437867.3      23.387266      435.98016     -4280.9822    
      9700  -3636186.9     -3636206.3      19.328244      340.61459     -7141.3432    
     18700  -3570070.3     -3570094.3      24.055503      431.78996     -5873.6774    
      9700  -3503959.7     -3503978.6      18.90037       345.67287     -5124.3693    
     19200  -3437844.1     -3437866.3      22.21285       414.08695     -4608.2291    
     18800  -3570070.6     -3570093.9      23.305529      418.32812     -5136.8171    
     19300  -3437844.2     -3437865.6      21.432788      399.54522     -4447.3438    
      9800  -3636186.9     -3636206.3      19.33677       340.76484     -7785.4415    
     18900  -3570070.8     -3570092.5      21.700388      389.51626     -4758.7762    
      9800  -3503959.7     -3503977.3      17.666498      323.10634     -5022.6489    
     19400  -3437844.3     -3437865.9      21.574985      402.19603     -4614.9112    
     19000  -3570071       -3570093.7      22.692357      407.32184     -5653.8129    
     19500  -3437844.3     -3437865.7      21.396908      398.87635     -6181.7072    
      9900  -3636186.8     -3636205.9      19.090814      336.43045     -6337.0722    
     19100  -3570071.2     -3570093.8      22.556852      404.88957     -3069.9006    
      9900  -3503959.5     -3503977.5      17.957974      328.4372      -4646.5145    
     19600  -3437844.3     -3437866.2      21.903787      408.32547     -8235.575     
     19200  -3570071.4     -3570093.4      22.097057      396.63637     -7625.3481    
     19700  -3437844.2     -3437866.1      21.867262      407.64459     -3200.8418    
     10000  -3636186.7     -3636206.7      20.076034      353.79262     -5247.5283    
     19300  -3570071.4     -3570093.9      22.505667      403.97081     -6134.5319    
     10000  -3503959.2     -3503977.7      18.48092       338.00146     -6075.7623    
     19800  -3437844       -3437865.5      21.484349      400.5064      -7354.5944    
     19400  -3570071.4     -3570093.7      22.312694      400.50699     -5964.2243    
     19900  -3437843.7     -3437865.3      21.596957      402.60562     -4520.0521    
     10100  -3636186.4     -3636205.3      18.873771      332.60557     -7066.7261    
     10100  -3503958.9     -3503976.8      17.951754      328.32343     -3878.0788    
     19500  -3570071.3     -3570094.3      23.047183      413.69088     -6617.3785    
     20000  -3437843.3     -3437864.6      21.263269      396.38508     -6179.8855    
     19600  -3570071.1     -3570094.1      23.031092      413.40204     -5245.6361    
     20100  -3437843       -3437865.8      22.815101      425.31398     -4015.8327    
     10200  -3636186.1     -3636204.5      18.381062      323.92274     -4056.5732    
     10200  -3503958.4     -3503976.7      18.206087      332.97498     -3404.7803    
     20200  -3437842.5     -3437864.3      21.798186      406.35689     -3781.1863    
     19700  -3570070.9     -3570093.8      22.889177      410.85471     -4145.4956    
     20300  -3437842.1     -3437863.3      21.188717      394.9953      -5039.3117    
     19800  -3570070.6     -3570092.5      21.896705      393.04009     -3041.3241    
     10300  -3636185.7     -3636205.8      20.09954       354.20686     -7031.7792    
     10300  -3503957.9     -3503976.5      18.567936      339.59292     -3078.9611    
     20400  -3437841.7     -3437864.6      22.956961      427.95851     -3543.1644    
     19900  -3570070.2     -3570093.2      22.911436      411.25426     -5097.0721    
     20500  -3437841.3     -3437864.2      22.990109      428.57643     -6104.6707    
     20000  -3570069.8     -3570093.3      23.465657      421.20237     -3984.953     
     10400  -3636185.2     -3636205.3      20.092784      354.08779     -3922.8506    
     10400  -3503957.4     -3503975.5      18.104318      331.1137      -5330.4712    
     20600  -3437840.9     -3437863.9      23.009891      428.94521     -5376.8664    
     20100  -3570069.4     -3570092.8      23.395325      419.93992     -5159.5537    
     20700  -3437840.5     -3437864.6      24.112446      449.49879     -5821.1922    
     20200  -3570068.9     -3570093.4      24.418278      438.30167     -4080.9097    
     10500  -3636184.7     -3636205.6      20.944065      369.08961     -5149.4665    
     10500  -3503956.8     -3503975.9      19.138912      350.03562     -2962.0575    
     20800  -3437840.2     -3437863.8      23.54066       438.83968     -4580.0094    
     20300  -3570068.5     -3570091.8      23.324597      418.67039     -3842.4263    
     20900  -3437840       -3437866.4      26.343621      491.09185     -3505.8991    
     20400  -3570068       -3570092.1      24.120315      432.95331     -5895.0638    
     10600  -3636184.1     -3636205.3      21.218947      373.93375     -8153.8117    
     10600  -3503956.2     -3503974.5      18.32341       335.12073     -4926.8103    
     21000  -3437839.9     -3437863.7      23.808049      443.8243      -2533.5822    
     20500  -3570067.5     -3570090.4      22.909515      411.21977     -2493.2679    
     21100  -3437839.9     -3437863.9      23.995122      447.31166     -5076.3976    
     20600  -3570067       -3570089.6      22.530767      404.42134     -3619.6544    
     10700  -3636183.5     -3636203.8      20.296902      357.68489     -3040.2096    
     10700  -3503955.6     -3503976.1      20.54792       375.80526     -6927.2712    
     21200  -3437839.9     -3437864.5      24.523166      457.15535     -2363.4877    
     20700  -3570066.6     -3570089.6      23.042306      413.60333     -4709.1223    
     21300  -3437840.1     -3437864.7      24.597703      458.54485     -4376.1284    
     20800  -3570066.1     -3570088.8      22.706434      407.57452     -3839.9545    
     10800  -3636182.9     -3636204        21.022707      370.47549     -6210.6985    
     10800  -3503955       -3503975.6      20.63774       377.44801     -4515.5299    
     21400  -3437840.3     -3437865        24.63955       459.32495     -4259.4785    
     20900  -3570065.8     -3570089.7      23.966842      430.19852     -2185.7737    
     21500  -3437840.6     -3437863.5      22.912222      427.12448     -4920.9611    
     21000  -3570065.5     -3570090.6      25.171673      451.82491     -5822.3356    
     10900  -3636182.4     -3636203.2      20.860122      367.61031     -5361.5324    
     10900  -3503954.4     -3503975.7      21.255445      388.74534     -6050.2652    
     21600  -3437840.9     -3437863.7      22.852412      426.00953     -4924.7936    
     21100  -3570065.3     -3570090.5      25.202434      452.37707     -6457.1572    
     21700  -3437841.1     -3437864.5      23.373189      435.71773     -4126.9608    
     21200  -3570065.3     -3570090.3      25.042171      449.50038     -5351.9954    
     11000  -3503953.9     -3503975.2      21.303736      389.62854     -3426.0203    
     11000  -3636181.9     -3636204.7      22.817159      402.09845     -6388.3622    
     21800  -3437841.4     -3437864.2      22.770993      424.49174     -2650.8561    
     21300  -3570065.3     -3570089.6      24.245754      435.20491     -4526.771     
     21900  -3437841.7     -3437865.2      23.482805      437.76116     -5158.3793    
     11100  -3503953.5     -3503974.4      20.96879       383.50265     -5990.9537    
     11100  -3636181.5     -3636203.1      21.62454       381.08136     -5310.8807    
     21400  -3570065.4     -3570089        23.580934      423.27156     -3676.1212    
     22000  -3437842       -3437865.5      23.500263      438.08661     -5494.898     
     21500  -3570065.6     -3570091        25.372284      455.42582     -3277.269     
     22100  -3437842.3     -3437864.3      22.035291      410.77693     -4888.8548    
     11200  -3503953.1     -3503974.3      21.159449      386.98965     -5374.9864    
     11200  -3636181.1     -3636202.1      21.001673      370.10481     -5413.094     
     21600  -3570065.8     -3570089.7      23.892003      428.85517     -5669.8201    
     22200  -3437842.5     -3437865        22.520515      419.82237     -5436.9584    
     21700  -3570066.1     -3570090.5      24.370181      437.43835     -5096.1288    
     22300  -3437842.7     -3437865.3      22.547524      420.32587     -4981.7069    
     11300  -3503952.8     -3503973.2      20.372647      372.59967     -4138.2441    
     11300  -3636180.9     -3636202.5      21.566819      380.06417     -5070.7609    
     21800  -3570066.4     -3570090.1      23.771074      426.68453     -5266.6172    
     22400  -3437842.8     -3437864        21.143465      394.15173     -5344.4546    
     21900  -3570066.7     -3570090.5      23.806669      427.32344     -4884.3758    
     22500  -3437842.9     -3437865.7      22.800912      425.04947     -4864.0388    
     11400  -3503952.6     -3503973.7      21.106607      386.0232      -6669.5649    
     11400  -3636180.8     -3636202.2      21.438172      377.79707     -6289.8641    
     22000  -3570066.9     -3570089        22.066301      396.0843      -5563.2295    
     22600  -3437842.8     -3437865.1      22.294897      415.61646     -6354.4721    
     22100  -3570067.2     -3570092.3      25.045473      449.55965     -6208.1262    
     22700  -3437842.7     -3437864.9      22.181433      413.50128     -3883.1652    
     11500  -3503952.5     -3503974.1      21.541931      393.98494     -1917.8426    
     11500  -3636180.8     -3636203.1      22.374659      394.30045     -6915.2184    
     22200  -3570067.4     -3570091.7      24.284375      435.89815     -4156.6719    
     22800  -3437842.5     -3437864.4      21.99525       410.03051     -5455.0463    
     22300  -3570067.6     -3570090.4      22.798554      409.22806     -3799.6007    
     22900  -3437842.1     -3437863.6      21.500663      400.81052     -4321.3713    
     11600  -3503952.6     -3503973.8      21.213704      387.98193     -5551.0147    
     11600  -3636180.9     -3636203.2      22.388668      394.54732     -6164.6173    
     22400  -3570067.7     -3570091.5      23.815375      427.47971     -4793.1072    
     23000  -3437841.8     -3437864.6      22.848867      425.94344     -3767.6769    
     11700  -3503952.8     -3503975.1      22.314175      408.10867     -3417.299     
     22500  -3570067.7     -3570091.6      23.903044      429.05335     -4090.0866    
     23100  -3437841.3     -3437864.4      23.097231      430.57338     -4284.9097    
     11700  -3636181       -3636203.5      22.443896      395.52058     -7609.6038    
     22600  -3570067.7     -3570090.2      22.489094      403.67333     -5866.2356    
     23200  -3437840.8     -3437864.9      24.0424        448.19301     -6053.1716    
     11800  -3503953.1     -3503975.5      22.417388      409.99636     -4752.591     
     22700  -3570067.6     -3570091.9      24.253393      435.34203     -3522.3917    
     23300  -3437840.3     -3437863.3      22.980246      428.39258     -5020.8193    
     11800  -3636181.3     -3636203.4      22.093351      389.34306     -5495.7775    
     22800  -3570067.5     -3570092.1      24.60927       441.72993     -6020.9907    
     23400  -3437839.8     -3437863.1      23.278037      433.94393     -2309.3592    
     11900  -3503953.5     -3503974.7      21.222056      388.13467     -7392.5071    
     23500  -3437839.2     -3437862.7      23.491317      437.91985     -4711.9886    
     22900  -3570067.3     -3570091.6      24.303541      436.24217     -6000.3159    
     11900  -3636181.7     -3636202.9      21.1861        373.35491     -3826.6252    
     23600  -3437838.8     -3437861.9      23.157811      431.70271     -6884.7596    
     23000  -3570067.1     -3570091        23.887812      428.77994     -3477.2309    
     12000  -3503954       -3503974.7      20.748155      379.4674      -2479.8354    
     23700  -3437838.3     -3437862.9      24.623757      459.03054     -5776.8198    
     23100  -3570066.8     -3570090.3      23.498637      421.79436     -3634.8712    
     12000  -3636182.1     -3636202.7      20.581449      362.69936     -6876.3238    
     23800  -3437837.8     -3437862.3      24.568416      457.99888     -4183.2508    
     23200  -3570066.5     -3570091.1      24.556534      440.78332     -6548.6051    
     12100  -3503954.5     -3503976.6      22.041775      403.12669     -5996.0681    
     23900  -3437837.4     -3437862        24.610223      458.77824     -5820.7445    
     23300  -3570066.2     -3570090.2      23.972295      430.29639     -1115.3112    
     12100  -3636182.6     -3636203.8      21.199635      373.59343     -6068.475     
     24000  -3437837       -3437861.5      24.505534      456.82666     -4190.4053    
     23400  -3570065.9     -3570091        25.090743      450.37223     -6499.9758    
     12200  -3503955.1     -3503976.2      21.097485      385.85637     -4213.4616    
     24100  -3437836.8     -3437860.3      23.540436      438.83551     -6675.9548    
     12200  -3636183       -3636204        20.96103       369.38858     -6748.1914    
     23500  -3570065.6     -3570090.3      24.75139       444.28095     -5238.3841    
     24200  -3437836.5     -3437862.3      25.764145      480.2894      -2718.0373    
     12300  -3503955.6     -3503976.5      20.86551       381.61373     -3543.5359    
     23600  -3570065.2     -3570090.8      25.582566      459.20034     -2488.6144    
     24300  -3437836.5     -3437861.3      24.854772      463.33707     -5840.063     
     12300  -3636183.5     -3636204.2      20.701552      364.81588     -6408.012     
     23700  -3570065       -3570089.7      24.783198      444.85189     -3096.1703    
     24400  -3437836.5     -3437862.7      26.140881      487.31243     -6112.1146    
     12400  -3503956.2     -3503976.1      19.860811      363.23859     -3547.7773    
     23800  -3570064.7     -3570089.2      24.519084      440.1111      -4217.5378    
     24500  -3437836.7     -3437862.2      25.551009      476.31617     -2078.6721    
     12400  -3636183.9     -3636205.4      21.464236      378.2564      -6685.9039    
     23900  -3570064.5     -3570089.6      25.0798        450.17581     -3929.8332    
     24600  -3437837       -3437862.9      25.889476      482.62579     -4630.4851    
     12500  -3503956.7     -3503976.6      19.841509      362.88556     -5448.091     
     24000  -3570064.4     -3570089.6      25.197939      452.29639     -3917.0896    
     24700  -3437837.4     -3437862.5      25.072756      467.40067     -5604.7115    
     12500  -3636184.3     -3636206.7      22.341996      393.72484     -5922.492     
     24100  -3570064.3     -3570090.9      26.60764       477.60013     -2757.7424    
     24800  -3437837.9     -3437863.5      25.565019      476.57733     -4706.3575    
     12600  -3503957.2     -3503976.6      19.411023      355.01231     -3547.765     
     24200  -3570064.3     -3570090.6      26.271749      471.57099     -4605.445     
     24900  -3437838.4     -3437863.2      24.785643      462.04839     -4991.3807    
     12600  -3636184.7     -3636204.6      19.874131      350.23456     -4722.2166    
     25000  -3437839       -3437864        24.957483      465.25179     -3041.0254    
     24300  -3570064.4     -3570088.6      24.175014      433.93514     -2403.0422    
     12700  -3503957.7     -3503977.3      19.621141      358.85521     -7235.9775    
     25100  -3437839.6     -3437864.9      25.294239      471.52951     -6259.814     
     24400  -3570064.5     -3570090.2      25.688057      461.09387     -3814.5293    
     12700  -3636185       -3636205.9      20.871117      367.80407     -5782.3713    
     25200  -3437840.2     -3437863.5      23.343564      435.16547     -5119.0102    
     12800  -3503958       -3503977        19.035107      348.1371      -3770.2295    
     24500  -3570064.7     -3570088.9      24.229007      434.90431     -3863.5485    
     25300  -3437840.7     -3437864.9      24.201176      451.15288     -1329.4668    
     24600  -3570064.9     -3570089.5      24.64157       442.3097      -5238.2168    
     12800  -3636185.3     -3636206.7      21.415078      377.39009     -6996.0292    
     12900  -3503958.2     -3503976.6      18.383394      336.21779     -3068.0541    
     25400  -3437841.1     -3437865        23.907677      445.68154     -4782.6174    
     24700  -3570065.1     -3570090.4      25.271106      453.60971     -1391.0074    
     25500  -3437841.5     -3437864.1      22.548119      420.33697     -5840.4083    
     24800  -3570065.3     -3570090.7      25.34127       454.86913     -6643.6002    
     12900  -3636185.5     -3636206.4      20.971633      369.57543     -6652.3893    
     13000  -3503958.3     -3503977        18.702659      342.05689     -5754.7449    
     25600  -3437841.7     -3437864.2      22.4538        418.5787      -3818.8603    
     24900  -3570065.6     -3570090.5      24.833621      445.75697     -4937.3809    
     25700  -3437841.9     -3437865.2      23.291573      434.19627     -3708.9998    
     25000  -3570065.9     -3570090.7      24.847401      446.00431     -3532.2216    
     13000  -3636185.6     -3636207.2      21.590308      380.47812     -6384.9709    
     13100  -3503958.4     -3503978.4      20.033785      366.40214     -3397.2159    
     25800  -3437841.9     -3437865.1      23.136758      431.31024     -3540.8372    
     25100  -3570066.1     -3570091        24.871039      446.42861     -5893.1604    
     25900  -3437841.9     -3437863.7      21.785901      406.12787     -6931.7325    
     13100  -3636185.6     -3636207.1      21.503056      378.94051     -8247.2847    
     25200  -3570066.3     -3570090.4      24.179684      434.01896     -7017.0569    
     13200  -3503958.3     -3503977.7      19.435574      355.46134     -5534.8741    
     26000  -3437841.7     -3437864.6      22.859893      426.14898     -4016.8608    
     25300  -3570066.4     -3570091.8      25.450502      456.82981     -3666.0048    
     26100  -3437841.5     -3437863.3      21.792531      406.25147     -7211.7136    
     13200  -3636185.6     -3636206.4      20.79997       366.55027     -4814.2341    
     25400  -3570066.4     -3570091.5      25.040441      449.46933     -4468.0548    
     13300  -3503958.1     -3503977        18.869592      345.10997     -5119.9858    
     26200  -3437841.1     -3437864.1      23.057066      429.82463     -4589.8077    
     25500  -3570066.4     -3570090        23.514703      422.08273     -6469.7263    
     26300  -3437840.6     -3437863.8      23.184037      432.1916      -6450.4113    
     13300  -3636185.5     -3636205.4      19.858169      349.95327     -6497.3782    
     13400  -3503957.8     -3503977.4      19.524383      357.08557     -4882.714     
     25600  -3570066.4     -3570091.1      24.677693      442.9581      -853.13753    
     26400  -3437840       -3437863.2      23.130189      431.18779     -4015.7185    
     25700  -3570066.3     -3570089.9      23.618899      423.95303     -5552.8635    
     26500  -3437839.4     -3437864.4      24.967685      465.44198     -7372.4488    
     13400  -3636185.4     -3636206.5      21.114667      372.09606     -5263.1276    
     13500  -3503957.5     -3503976.8      19.339637      353.70672     -6375.2723    
     25800  -3570066.1     -3570091.7      25.545697      458.53855     -2095.7182    
     26600  -3437838.7     -3437864.6      25.900552      482.83227     -2630.7498    
     26700  -3437838       -3437862.6      24.530651      457.29489     -2891.4221    
     25900  -3570065.9     -3570089.7      23.79564       427.12548     -3277.0697    
     13500  -3636185.1     -3636206.1      20.922338      368.70671     -6490.2606    
     13600  -3503957       -3503977.2      20.202678      369.49105     -2437.6233    
     26800  -3437837.4     -3437861.9      24.540591      457.48017     -5681.1176    
     26000  -3570065.7     -3570092.5      26.828245      481.55994     -4621.3507    
     26900  -3437836.8     -3437862.1      25.351347      472.5941      -1935.8149    
     26100  -3570065.4     -3570090.5      25.072914      450.05221     -2500.2186    
     13600  -3636184.8     -3636204.6      19.804062      348.99975     -5807.3561    
     13700  -3503956.4     -3503975.9      19.458023      355.8719      -5258.4134    
     27000  -3437836.2     -3437860.6      24.382         454.52376     -5854.035     
     26200  -3570065.1     -3570091.4      26.298597      472.0529      -4915.53      
     27100  -3437835.7     -3437859.9      24.276941      452.56527     -5402.4839    
     13700  -3636184.4     -3636206.3      21.873672      385.47173     -5217.0335    
     26300  -3570064.9     -3570090.6      25.712584      461.53411     -2426.2623    
     13800  -3503955.8     -3503976.5      20.656043      377.78274     -4043.9888    
     27200  -3437835.2     -3437861.7      26.483765      493.70439     -3454.9343    
     26400  -3570064.6     -3570090.1      25.536147      458.36712     -5079.0812    
     27300  -3437834.8     -3437861.6      26.748287      498.63556     -6384.589     
     13800  -3636184       -3636204.6      20.670711      364.27239     -5073.9339    
     26500  -3570064.3     -3570089.9      25.565233      458.88921     -4864.5463    
     13900  -3503955.2     -3503976.2      20.994623      383.97511     -4724.8842    
     27400  -3437834.6     -3437862        27.389568      510.59017     -2663.1822    
     26600  -3570064       -3570089.4      25.409913      456.10126     -4113.5687    
     27500  -3437834.5     -3437860.5      26.025405      485.15974     -4610.3552    
     13900  -3636183.5     -3636204.4      20.881392      367.98515     -5765.9519    
     14000  -3503954.6     -3503976.6      22.077893      403.78727     -5234.0645    
     26700  -3570063.8     -3570090.8      26.964082      483.99819     -5303.222     
     27600  -3437834.6     -3437861.1      26.486901      493.76286     -9052.3988    
     26800  -3570063.6     -3570089.4      25.850168      464.00372     -5715.8884    
     27700  -3437834.7     -3437861        26.288377      490.06202     -2026.5869    
     14000  -3636182.9     -3636204.5      21.562861      379.99442     -6248.1302    
     14100  -3503953.9     -3503975.6      21.730619      397.43589     -3858.5534    
     26900  -3570063.4     -3570088.7      25.33125       454.68928     -4812.6068    
     27800  -3437835       -3437861.1      26.124738      487.01148     -5772.8545    
     27000  -3570063.2     -3570090        26.816534      481.34973     -4157.8236    
     27900  -3437835.4     -3437862.3      26.91646       501.77059     -2908.5212    
     14100  -3636182.4     -3636204.8      22.399458      394.73746     -5965.9629    
     14200  -3503953.3     -3503974.3      21.000121      384.07566     -4675.9454    
     27100  -3570063.1     -3570090.2      27.101034      486.45644     -3614.3719    
     28000  -3437835.9     -3437861.6      25.741688      479.87075     -4839.3149    
     27200  -3570062.9     -3570089.6      26.686931      479.02339     -5064.1349    
     14200  -3636181.9     -3636203.7      21.865366      385.32537     -6876.0688    
     28100  -3437836.4     -3437862.8      26.34095       491.04207     -4136.2546    
     14300  -3503952.8     -3503974.3      21.483551      392.91722     -2946.0585    
     27300  -3570062.9     -3570089.8      26.91911       483.19094     -4865.3899    
     28200  -3437837       -3437862.3      25.330249      472.2008      -5450.4992    
     27400  -3570062.8     -3570089.6      26.802525      481.09827     -3171.4596    
     14300  -3636181.3     -3636204.1      22.734507      400.64191     -6173.8722    
     28300  -3437837.5     -3437861.9      24.415971      455.15704     -7664.4516    
     14400  -3503952.3     -3503974.3      21.985621      402.09969     -3449.509     
     27500  -3570062.8     -3570088.5      25.712393      461.5307      -6866.2213    
     28400  -3437838       -3437862.3      24.320331      453.37414     -3450.5962    
     27600  -3570062.8     -3570088.2      25.423191      456.3396      -1997.7564    
     14400  -3636180.9     -3636203.2      22.347364      393.81943     -8779.6321    
     28500  -3437838.4     -3437862.4      23.980686      447.04256     -5913.5657    
     14500  -3503951.9     -3503974        22.143562      404.98831     -6918.8315    
     27700  -3570062.9     -3570087.4      24.542976      440.53997     -588.08822    
[...]
    242700  -3503970.9     -3503986.9      15.969936      292.07755     -183.06134    
    239300  -3636197.3     -3636214.2      16.912164      298.0369      -1089.2565    
    242800  -3503970.8     -3503987.5      16.685781      305.16978      774.86699    
    239400  -3636197.3     -3636215        17.711746      312.12763      935.13947    
    242900  -3503970.7     -3503987.1      16.408366      300.09609     -105.0055     
    239500  -3636197.3     -3636215.1      17.729427      312.43921      342.30939    
    243000  -3503970.6     -3503986.8      16.155363      295.46885     -1637.0073    
    239600  -3636197.5     -3636215.4      17.900419      315.45255      2758.2204    
    243100  -3503970.6     -3503987        16.386342      299.69329      949.67628    
    239700  -3636197.6     -3636215.5      17.876087      315.02374     -3065.5904    
    243200  -3503970.6     -3503986.9      16.313494      298.36096     -1161.78      
    239800  -3636197.9     -3636214.7      16.839267      296.75226      2719.7987    
    243300  -3503970.6     -3503986.6      16.02325       293.05261     -427.65609    
    239900  -3636198.3     -3636214.8      16.558271      291.80036     -951.79035    
    243400  -3503970.6     -3503987.7      17.100482      312.75434      1438.6948    
    240000  -3636198.7     -3636215.6      16.878594      297.44529      799.83025    
    243500  -3503970.6     -3503986.8      16.231926      296.86914      1077.9872    
    240100  -3636199.1     -3636216.3      17.179151      302.7419       222.22954    
    243600  -3503970.7     -3503986.6      15.909875      290.97907     -1095.2475    
    240200  -3636199.5     -3636216.1      16.58779       292.32056     -2179.4582    
    243700  -3503970.7     -3503986.8      16.088533      294.24659     -211.1997     
    240300  -3636199.7     -3636216.8      17.138993      302.03421      1394.948     
    243800  -3503970.7     -3503986.7      15.98336       292.32306     -663.17942    
    240400  -3636199.8     -3636216.4      16.574407      292.08472      300.12623    
    243900  -3503970.7     -3503986.9      16.170192      295.74007      766.32388    
    240500  -3636199.8     -3636216.2      16.354317      288.20615      327.5261     
    244000  -3503970.7     -3503986.9      16.169944      295.73554     -3115.3053    
    240600  -3636199.8     -3636216        16.130776      284.26677     -664.46585    
    244100  -3503970.8     -3503987.3      16.500464      301.78048      1852.9935    
    240700  -3636199.7     -3636216.5      16.77906       295.69125     -315.41443    
    244200  -3503970.7     -3503987.1      16.381957      299.61308     -131.51127    
    240800  -3636199.7     -3636216.7      17.083584      301.05776      785.26443    
    244300  -3503970.7     -3503987.1      16.370298      299.39984      925.66013    
    240900  -3636199.5     -3636215.9      16.366428      288.41958     -905.41619    
    244400  -3503970.7     -3503986.6      15.851014      289.90256     -361.87783    
    241000  -3636199.4     -3636215.7      16.285129      286.98689     -85.248875    
    244500  -3503970.7     -3503986.8      16.1555        295.47136     -516.93289    
    241100  -3636199.2     -3636216.5      17.314365      305.12473     -2586.2884    
    244600  -3503970.7     -3503987        16.322937      298.53365      3167.7654    
    241200  -3636199       -3636216.4      17.359842      305.92616      2094.2603    
    244700  -3503970.6     -3503986.2      15.600205      285.31546     -1527.0756    
    241300  -3636198.9     -3636215.9      17.010171      299.76403     -1436.7078    
    244800  -3503970.6     -3503987        16.346484      298.96431      878.54393    
    241400  -3636198.7     -3636215.2      16.523615      291.18963      1787.112     
    244900  -3503970.6     -3503987        16.389291      299.74722      1820.6288    
    241500  -3636198.5     -3636216.3      17.762493      313.02193     -1864.1883    
    245000  -3503970.6     -3503987.1      16.521744      302.16967     -551.16139    
    241600  -3636198.3     -3636215        16.707635      294.43254      1776.4906    
    245100  -3503970.6     -3503987.5      16.861431      308.38229      461.71998    
    241700  -3636198.1     -3636214.9      16.744339      295.07938     -423.21729    
    245200  -3503970.6     -3503987.7      17.012116      311.13819     -123.88919    
    241800  -3636198       -3636214.9      16.93267       298.39826      615.12759    
    245300  -3503970.7     -3503986.7      16.020891      293.00947     -444.36005    
    241900  -3636197.9     -3636215.5      17.629275      310.67428      302.07652    
    245400  -3503970.9     -3503987.2      16.296379      298.04794     -661.63298    
    242000  -3636197.9     -3636215.2      17.281824      304.55127     -495.81046    
    245500  -3503971.1     -3503987.1      16.074776      293.99499      1822.9665    
    242100  -3636197.9     -3636215.8      17.933375      316.03332     -704.29404    
    245600  -3503971.4     -3503987.2      15.793985      288.85953     -362.09672    
    242200  -3636197.8     -3636215.2      17.374777      306.18934      2761.3602    
    245700  -3503971.6     -3503986.6      14.946977      273.36843      1176.4532    
    245800  -3503971.9     -3503987        15.109259      276.33644      790.29103    
    242300  -3636197.9     -3636214.5      16.632867      293.11493     -821.51274    
    242400  -3636197.9     -3636215.7      17.758599      312.9533      -1494.1266    
    245900  -3503972.1     -3503987.9      15.79078       288.80092     -2169.7017    
    242500  -3636198.1     -3636215.6      17.515076      308.66179      1778.9952    
    246000  -3503972.3     -3503988.1      15.876501      290.36869      883.41163    
    246100  -3503972.4     -3503988.1      15.782408      288.64781     -3131.4795    
    242600  -3636198.3     -3636215.9      17.534469      309.00354     -2354.8541    
    246200  -3503972.4     -3503988.2      15.816432      289.27008      3610.4862    
    242700  -3636198.7     -3636216.4      17.665059      311.30488     -715.89661    
    242800  -3636199.2     -3636215.8      16.545752      291.57974      772.82113    
    246300  -3503972.4     -3503988.6      16.201518      296.31299     -2596.7246    
    246400  -3503972.4     -3503987.9      15.50286       283.53509      1595.5708    
    242900  -3636199.6     -3636215.7      16.018646      282.29075     -3069.316     
    246500  -3503972.2     -3503987.2      15.038552      275.04327      389.76374    
    243000  -3636200       -3636217.1      17.10927       301.51041      3162.6875    
    246600  -3503972       -3503987.8      15.817445      289.2886      -1890.0203    
    243100  -3636200.2     -3636216.8      16.631013      293.08227     -1079.017     
    246700  -3503971.8     -3503988.2      16.417678      300.2664       1995.9887    
    243200  -3636200.3     -3636216.2      15.854766      279.40275      1287.109     
    246800  -3503971.5     -3503987.8      16.302837      298.16603      40.266276    
    243300  -3636200.4     -3636216.7      16.248152      286.33525      1649.5534    
    246900  -3503971.2     -3503988.1      16.933701      309.70405     -199.90379    
    243400  -3636200.4     -3636216.4      15.949609      281.07414     -2208.6192    
    247000  -3503970.9     -3503988        17.070778      312.21108     -2317.8974    
    243500  -3636200.4     -3636217.4      17.040307      300.29511      1649.0027    
    247100  -3503970.7     -3503986.7      16.032122      293.21488      968.43515    
    243600  -3636200.3     -3636216.7      16.370874      288.49793     -2548.562     
    247200  -3503970.5     -3503986.2      15.787384      288.73882     -2080.9019    
    243700  -3636200.2     -3636216.8      16.604262      292.61085      2365.282     
    247300  -3503970.3     -3503986.8      16.523996      302.21087     -2281.2262    
    243800  -3636200       -3636216        16.033268      282.54842     -2192.8574    
    247400  -3503970.2     -3503986.5      16.302913      298.16743      1518.6695    
    243900  -3636199.7     -3636216.2      16.482083      290.45773      644.18307    
    247500  -3503970.1     -3503986.5      16.361622      299.24118     -1768.639     
    244000  -3636199.4     -3636215.7      16.284737      286.97997      470.35366    
    247600  -3503970.1     -3503986.5      16.438976      300.65591     -1426.0251    
    244100  -3636199.2     -3636215.7      16.54035       291.48454     -2190.7484    
    247700  -3503970.1     -3503986.4      16.313123      298.35416      1350.3121    
    244200  -3636198.9     -3636215.4      16.54763       291.61284      1268.0657    
    247800  -3503970.1     -3503987.6      17.415242      318.51105      1937.6786    
    244300  -3636198.7     -3636216.1      17.495123      308.31017     -1818.9931    
    247900  -3503970.2     -3503987.3      17.127103      313.24121     -119.50594    
    244400  -3636198.4     -3636215.2      16.74476       295.08678      1246.5477    
    248000  -3503970.2     -3503986.6      16.369419      299.38378     -67.111065    
    244500  -3636198.3     -3636215.6      17.342266      305.61642     -754.47172    
    248100  -3503970.4     -3503986.4      15.996298      292.55968      264.97242    
    244600  -3636198.2     -3636215.2      17.02817       300.08122      996.1191     
    248200  -3503970.5     -3503986.7      16.161269      295.57687     -1269.9311    
    244700  -3636198.2     -3636214.9      16.72165       294.67954     -2012.0918    
    248300  -3503970.6     -3503986.4      15.75466       288.14032      1481.5735    
    244800  -3636198.1     -3636215.9      17.787759      313.46717     -2471.6584    
    248400  -3503970.8     -3503987.6      16.754188      306.4209      -557.24458    
    244900  -3636198.1     -3636215.1      16.95933       298.86809     -548.40159    
    248500  -3503971       -3503986.4      15.344675      280.64202     -800.28015    
    245000  -3636198.2     -3636215.7      17.490378      308.22655     -163.66989    
    248600  -3503971.4     -3503987.6      16.239201      297.00218      1867.8634    
    245100  -3636198.2     -3636216.3      18.105904      319.07374     -563.22385    
    248700  -3503971.8     -3503987.9      16.099771      294.45212      2069.8139    
    245200  -3636198.3     -3636215.1      16.830426      296.59644     -641.319      
    248800  -3503972.2     -3503987.8      15.595385      285.22731     -1411.1536    
    245300  -3636198.3     -3636215.7      17.348849      305.73243      1864.9625    
    248900  -3503972.5     -3503988.8      16.255738      297.30464      1949.123     
    245400  -3636198.4     -3636216.2      17.755695      312.90213     -1270.5477    
    249000  -3503972.7     -3503987.8      15.041506      275.09729     -1273.2059    
    245500  -3636198.5     -3636215        16.455115      289.98249      1267.9043    
    249100  -3503972.9     -3503989.1      16.164513      295.63621      1596.289     
    245600  -3636198.6     -3636215.9      17.271549      304.37019     -1131.0598    
    249200  -3503972.9     -3503988.6      15.709766      287.31925     -206.23229    
    245700  -3636198.7     -3636215.6      16.883923      297.53922      339.21643    
    249300  -3503972.9     -3503988.7      15.78707       288.73306      3519.421     
    245800  -3636198.8     -3636215.2      16.391484      288.86114      870.96666    
    249400  -3503972.8     -3503988.2      15.467463      282.88771     -1773.3671    
    245900  -3636198.9     -3636215.6      16.661576      293.62087      1324.8017    
    249500  -3503972.7     -3503988.2      15.508425      283.63687     -798.57749    
    246000  -3636199.1     -3636216.1      16.975083      299.14569     -1109.2492    
    249600  -3503972.4     -3503988.3      15.873608      290.31579      3687.6589    
    246100  -3636199.3     -3636216.6      17.295291      304.78861     -1664.555     
    249700  -3503972.2     -3503987.9      15.637195      285.99198     -2247.3272    
    246200  -3636199.8     -3636216        16.282657      286.94331      608.21724    
    249800  -3503972       -3503987.4      15.389344      281.45897      856.25308    
    246300  -3636200.1     -3636216.2      16.023851      282.38248      1475.561     
    249900  -3503971.9     -3503987.8      15.937653      291.48712     -2161.3085    
    246400  -3636200.6     -3636216.3      15.75767       277.69166     -616.57905    
    250000  -3503971.7     -3503987.5      15.80554       289.07088      286.15548    
Loop time of 8590.47 on 72 procs for 50000 steps with 424 atoms

Performance: 1.006 ns/day, 23.862 hours/ns, 5.820 timesteps/s, 2.468 katom-step/s
94.2% CPU use with 72 MPI tasks x 1 OpenMP threads

MPI task timing breakdown:
Section |  min time  |  avg time  |  max time  |%varavg| %total
---------------------------------------------------------------
Pair    | 4411.4     | 6538.1     | 7989.2     |1080.1 | 76.11
Bond    | 0.028288   | 0.047738   | 0.071568   |   5.2 |  0.00
Neigh   | 0.060271   | 0.081291   | 0.1021     |   3.8 |  0.00
Comm    | 590.6      | 2041.9     | 4168.3     |1932.8 | 23.77
Output  | 0.066696   | 0.070644   | 0.3012     |  10.3 |  0.00
Modify  | 8.9198     | 9.2643     | 9.5706     |   6.3 |  0.11
Other   |            | 1.086      |            |       |  0.01

Nlocal:        5.88889 ave           9 max           3 min
Histogram: 3 7 0 20 0 16 18 0 7 1
Nghost:        395.042 ave         407 max         388 min
Histogram: 3 8 17 16 11 10 3 1 2 1
Neighs:              0 ave           0 max           0 min
Histogram: 72 0 0 0 0 0 0 0 0 0
FullNghs:      516.778 ave         765 max         255 min
Histogram: 3 6 1 20 2 14 6 12 5 3

Total # of neighbors = 37208
Ave neighs/atom = 87.754717
Ave special neighs/atom = 0
Neighbor list builds = 1598
Dangerous builds = 0
System init for write_restart ...
    246500  -3636201       -3636217.1      16.137048      284.3773       667.09655    
    246600  -3636201.1     -3636215.9      14.761988      260.14513      1490.914     
    246700  -3636201.3     -3636217.4      16.173241      285.01511     -865.76255    
    246800  -3636201.2     -3636216.8      15.606334      275.02472      1471.4584    
    246900  -3636201.1     -3636216.7      15.598885      274.89345     -1218.2332    
    247000  -3636200.9     -3636217.1      16.188942      285.29181      1507.0544    
    247100  -3636200.6     -3636216.8      16.112377      283.94254     -121.37519    
    247200  -3636200.4     -3636216.3      15.89977       280.19584     -756.02288    
    247300  -3636200.1     -3636216.7      16.622217      292.92726      723.42336    
    247400  -3636199.9     -3636216.2      16.350667      288.14184     -1182.0316    
    247500  -3636199.6     -3636217        17.324847      305.30945     -1141.3406    
    247600  -3636199.4     -3636216.1      16.628202      293.03273     -1079.5312    
    247700  -3636199.3     -3636215.7      16.432808      289.58938     -803.99336    
    247800  -3636199.2     -3636216.9      17.724552      312.35331      197.26475    
    247900  -3636199       -3636215.1      16.037441      282.62197      527.33489    
    248000  -3636198.9     -3636216.3      17.410613      306.82087     -317.00521    
    248100  -3636198.8     -3636215.7      16.904835      297.90774     -518.86295    
    248200  -3636198.7     -3636215.1      16.430447      289.54777      2285.0569    
    248300  -3636198.6     -3636215.1      16.482966      290.47329     -1431.2379    
    248400  -3636198.5     -3636215.9      17.438694      307.31573      159.25081    
    248500  -3636198.3     -3636216.3      17.99547       317.1276      -2638.37      
    248600  -3636198.2     -3636214.9      16.686814      294.06563      2540.5488    
    248700  -3636198.1     -3636214.6      16.427128      289.48927     -907.05898    
    248800  -3636198       -3636214.9      16.887923      297.6097       533.88445    
    248900  -3636197.9     -3636215.8      17.877444      315.04766     -948.73957    
    249000  -3636197.9     -3636215.8      17.970322      316.68442     -1455.379     
    249100  -3636197.8     -3636214.8      17.012987      299.81366      316.2962     
    249200  -3636197.7     -3636215.6      17.981507      316.88153     -2411.5176    
    249300  -3636197.5     -3636215.4      17.887165      315.21897      1316.9549    
    249400  -3636197.4     -3636215.6      18.173537      320.26561      547.18237    
    249500  -3636197.3     -3636214.3      16.99106       299.42724     -2117.4555    
    249600  -3636197.2     -3636214.1      16.877295      297.4224      -579.92966    
    249700  -3636197.2     -3636214.8      17.599711      310.15328      248.07858    
    249800  -3636197.3     -3636214.9      17.599967      310.15779      75.351186    
    249900  -3636197.3     -3636215.2      17.876762      315.03565     -384.15078    
    250000  -3636197.5     -3636215.6      18.087075      318.74191      178.81293    
Loop time of 8513.52 on 72 procs for 50000 steps with 440 atoms

Performance: 1.015 ns/day, 23.649 hours/ns, 5.873 timesteps/s, 2.584 katom-step/s
94.4% CPU use with 72 MPI tasks x 1 OpenMP threads

MPI task timing breakdown:
Section |  min time  |  avg time  |  max time  |%varavg| %total
---------------------------------------------------------------
Pair    | 4605.9     | 6524.8     | 8068.9     | 844.9 | 76.64
Bond    | 0.021712   | 0.042153   | 0.071049   |   5.0 |  0.00
Neigh   | 0.06178    | 0.082222   | 0.10556    |   3.2 |  0.00
Comm    | 434.67     | 1973.3     | 3888.5     |1530.5 | 23.18
Output  | 0.064122   | 0.068019   | 0.28399    |   9.8 |  0.00
Modify  | 8.3786     | 14.211     | 73.366     | 325.4 |  0.17
Other   |            | 1.026      |            |       |  0.01

Nlocal:        6.11111 ave           9 max           3 min
Histogram: 3 7 0 12 0 20 21 0 5 4
Nghost:        401.569 ave         416 max         389 min
Histogram: 2 6 5 13 17 13 7 4 3 2
Neighs:              0 ave           0 max           0 min
Histogram: 72 0 0 0 0 0 0 0 0 0
FullNghs:      537.778 ave         829 max         258 min
Histogram: 3 7 2 10 17 8 16 3 3 3

Total # of neighbors = 38720
Ave neighs/atom = 88
Ave special neighs/atom = 0
Neighbor list builds = 1617
Dangerous builds = 0
System init for write_restart ...
                                  
================================= 
Global information about the job: 
================================= 
  
Job owner: thuss(30998)
Job name:  MD_short
Node list: ravc2096
Job start: Thu Feb 23 17:05:41 CET 2023
Job end:   Fri Feb 24 04:57:50 CET 2023
Work dir:  /ptmp/thuss/naps/sampl_compar/bridson_fps/./
Command:   /raven/ptmp/thuss/naps/sampl_compar/bridson_fps/geom.job
  
  
  
==========================================================================================
Information on jobsteps (Note: MaxRSS/AveRSS is the maximum/average over all 
tasks of the per-task memory high-water marks; cf. "man sacct"): 
==========================================================================================
  
JobID            JobName NNodes NTasks  NCPUS        0.00M        0.00M    Elapsed ExitCode
------------- ---------- ------ ------ ------ ------------ ------------ ---------- --------
4275899         MD_short      3           432                             11:52:09      0:0
4275899.0            lmp      1     72     72      257.51M      250.71M   11:52:04      0:0
4275899.1            lmp      1     72     72      255.99M      248.61M   05:58:53      0:0
4275899.2            lmp      1     72     72      257.81M      249.17M   06:18:07      0:0
4275899.3            lmp      1     72     72      258.24M      250.05M   11:46:35      0:0
  
Maximum memory per node: 19.496337 GB (defined as MaxRSS*Ntasks/NNodes)
CPU utilization: 100.8 %
  
