440
Lattice="22.610974503623503 -6.857955160328961e-05 -0.00024074830982052296 -6.857954013443168e-05 22.610831247337664 -0.00036185250087930685 -0.0002407474699391125 -0.0003618516384197465 22.610810825662234" Properties=species:S:1:pos:R:3:forces:R:3 energy=-3636030.7141613476 free_energy=-3636030.7141613476 pbc="T T T"
P       10.61050679      11.80992629      17.01075913       0.01371001      -0.20338903       0.03702414
S        8.88006017      12.90172116      16.94707994      -0.27729227      -0.45365302       0.15667934
S       11.64922777      12.30214495      15.37491368      -0.29976460       0.03875799      -0.22982144
S       11.80454414      11.90386395      18.69128286       0.51620567      -0.77014477      -0.18209836
S       10.12081072       9.83533664      16.92264562      -0.24213527      -0.27556032      -0.29005903
P       17.21598329      11.31726563       4.70755674       0.79816478      -0.19043019      -0.09770121
S       18.15281355      10.35342422       2.97346775       0.12318729      -0.24062720      -0.68843436
S       15.42672987      11.91497290       3.96476487       0.64980797      -0.27780746      -0.22152093
S       16.91380903      10.09971168       6.25632680       0.48662355      -0.53332623      -0.26507888
S       18.62112325      12.76067007       5.36697513       1.04996930      -0.52412889      -0.36558743
P       18.77892731       1.81930934      17.67118448       1.05034949      -1.60048541       0.76491249
S       17.17416243       1.54301563      18.96271372       0.24291847      -0.05723292       0.06170919
S       18.21325335       1.60415116      15.68291528      -0.71093376       0.30632896       0.16622202
S       20.43862506       2.94301025      18.25170580      -0.72258910       0.98137117      -0.45969180
S       19.73807617      -0.03168364      18.15730360      -0.36399233       1.52074948      -0.85375127
P       12.61178313      22.37575920       4.54954259      -0.81257677      -0.99024031      -0.26900645
S       14.40679435      22.54780424       3.54706140       0.62678906       0.73163340       0.14793663
S       11.75645917      20.99639235       3.23071847       0.98197577      -1.06716486       0.02778485
S       13.33310899      21.95100346       6.35524113       0.65451002      -0.29377161      -0.30735039
S       10.49596092       0.23914034       4.84370784      -0.44904010       1.85150702       0.35476482
P        5.41863220      11.11295747       4.38178109       0.07030155      -0.56631479      -0.32057330
S        4.31579184      10.32045697       5.93434048       0.24688426      -0.87841428      -0.60706103
S        4.28110131      10.60208504       2.69519480      -0.13525025      -0.20725083      -0.33919962
S        5.77061991      13.10847781       4.24166841       0.14341488      -0.49431025      -0.51906627
S        7.16190410       9.94095411       4.30244498       0.15584806      -0.42975126      -0.36068412
P        8.70893346       1.39447296      14.99433030      -0.20310681       0.16515838      -0.25259052
S       10.53796458       2.03628514      15.65205183      -0.11276303       0.24834497       0.51721053
S        7.63120146       2.78656646      13.75250082       0.21661159       0.79834928       0.13775339
S        8.80675332       0.04698574      13.35156839      -0.25529197      -0.74271353       0.64331823
S        7.69541010       0.40793921      16.45170416      -0.58456385       0.14970440       0.01203470
P       20.89085213      13.67669511      17.84751195      -0.05826369      -0.18122035       0.32117640
S       20.59419326      12.08559871      19.13935385      -0.37954816      -0.09011286       0.30587239
S       22.57535227      13.19106529      16.78202353       0.09762674      -0.61232725       0.33712389
S       19.52492023      13.75310161      16.37566440       0.05846538       0.40273003       0.16785929
S       21.18251926      15.36893330      19.02204781       0.28731347      -0.13466779       0.58279107
P        3.86882888      19.83487767      21.82587623      -0.04710495      -0.24898405      -0.48116851
S        5.71406266      20.17010812      22.50731332       0.39373340       0.11786500      -0.31682472
S        2.55985565      21.46602419      21.66292049       0.46310839       0.76084561      -0.60155331
S        4.46176456      19.51083973      19.83050990      -0.21811151       0.23745181      -1.02357808
S        2.68255574      18.38712828      22.63594516       0.15643661       0.96396537       1.37394305
P        2.26534423       6.61464006      20.53466562      -0.01249061      -0.27741927      -0.03269626
S        2.39735531       7.62360164      22.35620397       0.77936911       0.02334169      -0.19473138
S        0.83901093       5.12222614      20.70685269      -0.09335305      -0.19068280       0.58050568
S        1.85626462       7.85832039      18.93205225      -0.36294023      -0.05865932       0.32490822
S        4.24219108       5.89957022      20.42618434      -0.06732603      -0.47267130      -0.32080786
P       16.18199668       5.05064853      10.87692224      -0.35804969       0.08041488       0.24147035
S       15.18070838       4.04629317      12.44878092      -0.61181425       0.45693625       0.18963644
S       17.82967788       3.88741992      10.32908188      -0.39407322      -0.31192230       0.91193482
S       15.07383509       5.31773764       9.24790238      -0.23496397       0.08198653       0.08542347
S       17.03552965       6.71451636      11.65797765       0.37978591       0.03748411      -0.15906867
P        1.22687150       7.51797923      10.44530025       0.15294587      -0.39666343      -0.31027321
S        0.53254287       8.24201082      12.22339930       0.77681648      -0.58343339       0.36437078
S        2.07583424       5.71477438      10.58269328       1.36843897      -0.36090052      -0.10937386
S       -0.05608094       7.32969735       8.88706299      -0.68565908      -0.03013057       0.79550224
S        2.90929083       8.55917176       9.82060144       0.32569502       0.00150562       0.19321834
P        0.86400193      19.41832383      13.10700013      -0.07456783       0.19851130       0.29082409
S        0.00999949      17.91051381      14.12669957       0.20051178       0.66206407       0.95501884
S        2.84676968      19.45317972      13.59737360      -0.02170453       0.16895196       0.33704204
S        0.45132112      19.24042306      11.13250460      -0.02050913      -0.09543260       0.01159369
S        0.02340675      21.32187500      13.56186185      -0.60133294       0.36346050      -0.49795406
P       18.55078376      18.08929784       0.86206064       0.31469588       1.83927527       0.45945456
S       20.56942805      17.53509966       0.77623241       0.48307236       0.23121483       0.51106903
S       17.98282339      19.38066579       2.50066051       0.60387563      -0.76717669       0.77705009
S       18.72775669      19.94731759      -0.12612665       0.24759389      -0.21527653      -2.01014008
S       17.27737117      16.72890242       0.12177282       0.88920976      -0.10882602       0.42838473
P       10.47179576      16.22801293       0.67301806      -0.05550978      -1.11781290      -0.44133800
S        8.85090570      17.08572354       1.37145038       0.04398933       0.81236569       0.14083058
S       11.63453869      14.31342122       1.37785727      -0.44062642       0.11642303      -0.27544224
S        9.97199572      14.41490554      22.35154651       1.09963252       0.39869780      -0.74578223
S       12.12665406      17.29452122       0.33531678       0.47449444       0.76810073      -0.07288383
P       15.63600210      18.13438447      10.02787486       0.68643683      -0.25938127       0.30975942
S       16.77904061      16.36139605       9.75041242       0.38608969      -0.52146286       0.42441251
S       16.75788363      19.58545518      11.02282378       0.51994774      -0.22910570       0.36626691
S       15.01096607      18.74623622       8.15550271       0.93112679      -0.07120555       0.17960776
S       14.07785776      17.86159817      11.25912755       0.15123287      -0.26422068      -0.02594464
P       10.41881085      11.65808666       9.68068133       0.01994347       0.45624650      -0.38590816
S        8.79537272      12.97659734       9.93748393      -0.30011303       0.38583796      -0.10979737
S       11.32232708      11.96354635      11.50203964      -0.31901150       1.12796267      -0.14553242
S       10.18633509       9.70839736       9.06353798       0.11520135       0.45686049      -0.51244043
S       11.41843736      12.63603433       8.17754464      -0.40796906       0.42882292      -0.68810674
P       11.32287908       7.36834245       2.93113437      -0.04533987       0.06088420       0.01261686
S       11.01127904       8.95810870       1.56555623       0.21718523      -0.40780139      -0.64350231
S       13.26392700       7.35659933       3.68116971      -0.06075325       0.16780817       0.12629090
S       10.27024216       7.33454308       4.71974687      -0.51083659      -0.14224195      -0.26484460
S       10.78424172       5.85539581       1.67995547      -0.04605703       0.14451140      -0.09695550
P       13.93023870      18.01966076      17.71999343      -0.18166293      -0.06704915      -0.00967415
S       15.02968710      16.83662646      16.51298839       0.15278107       0.74038574      -0.43924845
S       11.95415916      17.27802602      18.06982833      -0.29784871      -0.09387902      -0.22054622
S       14.85042116      18.48991955      19.62625623      -0.18463430       0.12827057      -0.04244515
S       13.96723375      19.88511807      16.87618888       0.04296841       0.23153798       0.50037420
P       17.88627312       7.83959473      19.99979146      -0.53455782       0.02828987      -0.06634835
S       18.41248809       9.83863963      19.68288020      -0.04620483      -0.16334888       0.33857419
S       18.26892264       6.17207170      18.77459930      -0.13499617      -0.57204014       0.53105787
S       18.58279520       7.34411872      21.85264551       0.16806568       0.45094427       0.06301845
S       15.86146193       8.04910428      19.92302091      -0.74826708       0.29798002       0.92580392
P        5.31467868      17.06826258       8.65257806      -0.10800907      -0.14618703       0.25045378
S        4.32907180      15.36835603       8.08041909      -0.04814550      -0.25484455       0.31545417
S        3.79923011      18.43579903       8.47139809      -0.33638910      -0.05559485       0.28765035
S        6.05438930      16.78725835      10.55091854       0.61181561      -0.70288660      -0.17602281
S        6.97403285      17.31738793       7.56256867      -0.25364684      -0.24870572      -0.07782665
P       10.93699762      22.48844796      20.70190111      -1.14051021       1.53958551      -1.85612450
S       10.16394113       1.58981574      19.65405569       0.82702417       0.49389786       1.27985748
S       12.71371100      -0.00591265      19.62866295      -0.31506666      -0.04948166      -0.71645480
S       11.51062142      22.57824493       0.01282752       0.26828818       0.70347685      -0.16944021
S        9.04843891      21.56503338      20.28202832       0.97846779      -1.79195850      -0.01286600
P        6.13190019       4.15973878       7.94239005      -0.08213109       0.00754401      -0.41328998
S        4.09043845       4.15622773       7.86488096      -0.20659481      -0.94705340       0.11674763
S        6.78870063       5.92933827       8.75842124      -0.40274075       0.21113644      -0.73950096
S        6.81640400       2.39410702       8.88428569       0.34588733       0.08782724      -0.43539030
S        6.98046758       4.39710913       6.07171858      -0.43770950       0.47657572      -0.69568410
P        7.11466821      16.32210589      14.56035433       0.14729086       0.42825584       0.07560797
S        8.14732210      16.68833559      12.82458309       0.46878604      -0.50113737       0.13642373
S        8.32454067      15.47539731      15.99183062      -0.15425466       0.46088974       0.74739016
S        6.45346968      18.13070242      15.26705581       0.46122134       0.87247685      -0.23820051
S        5.64567872      14.97144256      14.45187089      -0.01143738       0.43927670      -0.16831801
P        3.12473390      11.37569850      14.73496502      -0.16547621      -0.15227631       0.10553575
S        3.12390321      10.60244806      12.84688584       0.11141865      -0.08763408      -0.09659648
S        2.77114649      10.10421544      16.30571367       0.63629203      -0.59094697       0.12197896
S        5.06125237      12.07245911      14.95563968       0.37671692      -0.62990115       0.17236764
S        1.45544272      12.64530325      14.41257916      -0.41867590      -1.03299393       0.19372010
P       13.04353415       6.41363218      15.68458383       0.04001985      -0.25393089       0.14905284
S       12.43144926       6.48047918      13.67955337      -0.30271382      -0.04328733       0.23972237
S       14.65157088       7.62593087      15.90114365      -0.28665814       0.41588116      -0.27395593
S       11.53945641       6.91565595      16.96920354       0.04731458      -0.63831310       0.34395370
S       13.67096492       4.51727153      16.29319540       0.31770270      -0.19516495       0.31602090
P       19.63931657       3.33157218       2.60375577       0.32682201       0.06374586       0.28726560
S       18.99254368       2.85777724       0.76071730       0.66004594      -0.21714375       0.03716133
S       17.81206286       3.66834077       3.79063639       0.55667557      -0.73725394       0.77015691
S       20.56210559       1.84782931       3.70436070       0.73063309       0.15032591       0.29199032
S       20.50227977       5.17705369       2.42168625      -0.24020578       0.30807692      -0.68860743
P        0.64966031      13.43854729       2.00688710       0.39544625      -0.02359272       0.71341697
S       22.54412939      14.03978964       0.23377672      -0.86851967      -0.18096427       0.20908322
S        2.18235755      14.83421452       2.46913923       0.49684566      -0.24638652      -0.62710079
S        0.00147602      13.58017266       3.97993867      -1.12872743       0.02025120      -0.71971867
S        1.10452555      11.45771217       1.75103966       0.21937829      -0.30853459      -0.27427030
P        9.32567539       6.01462309      20.11760611       0.08484488      -0.49155455       0.27108483
S        8.55213081       4.51474925      18.84898135       0.00482781      -0.27666330       0.18079251
S        8.16462705       5.99569599      21.81278474       0.10645274      -0.38424286       0.45206195
S       11.28519420       5.72619856      20.68058288       0.19468689      -0.33483131       0.06580620
S        9.31264753       7.79672423      19.10377400      -0.16127620      -0.37120143       0.07050063
P        3.21942658       2.12042030      16.12871227      -0.17911443      -0.04406429       0.09985669
S        2.80169183       3.22553716      14.35808297       0.66715340      -0.17310128      -0.38322625
S        4.94782864       2.85467265      16.93989783      -0.32575669      -0.15440138       0.79681178
S        1.70192315       2.24724855      17.53277960      -0.82133641       0.00595427      -0.46351291
S        3.43507753       0.14185422      15.63115159      -0.21008237      -0.13349303       0.38963069
P        6.00426234       1.81046371       1.61398633       0.85791014      -0.26480076      -0.80979727
S        7.23010982       1.26905672       0.00682455      -1.20089777       0.02962833      -0.27486993
S        5.09063812       0.15899713       2.31146489      -0.79218144       0.56934275       1.23399601
S        7.42052017       2.63041852       2.96046215       0.12280601       0.12948310       0.03205161
S        4.47954437       3.08226202       0.90829888      -0.02220065       0.06302118       0.23316772
P       19.66849590      11.13588053      11.36723915      -0.27816444       0.28170546      -0.59718917
S       19.71762057      12.97954869      10.31889732      -0.12083217       0.20320747      -0.73493879
S       21.37922281      10.11012549      11.31175739      -0.23162109      -0.09631716      -0.25700518
S       19.21291251      11.54950624      13.33705256      -0.30541806       0.53472528      -0.64198290
S       18.21336992       9.94462935      10.59320805      -0.18573544       0.17156928      -0.77483572
P        0.92921374       6.71726664       4.77232626       0.27379153       0.51437561      -0.80643136
S        2.53153741       6.34233741       3.43704366       0.57992732      -0.49530559      -0.01493726
S       22.54556504       5.00553966       4.81361773      -0.29080030       0.08893401      -0.67464887
S        1.43758271       7.56670874       6.50399887       0.47381978      -0.21172117      -0.26141208
S        0.02243240       8.38955185       3.87550888      -0.56741544       0.09339978       0.42112517
P       19.95207796      19.49399234       7.02014211       0.22148806       0.11671442      -0.34537767
S       18.33146022      20.74775782       7.22112164       0.10357370       0.31099069      -0.83471791
S       20.86363672      19.26027346       8.87242349      -0.12351278       0.16756553      -0.09299780
S       19.42958275      17.56101414       6.37779077       0.53723987      -0.13996487       0.06116591
S       21.22583989      20.47209288       5.67221862       0.47800607       0.02652509      -0.29351753
P        3.95300908      14.82837708      20.22345832      -0.13009580      -0.36548973       0.12245977
S        2.27767950      14.19010612      21.25241035      -0.14503275      -0.71378757      -0.06325277
S        5.30575860      13.79574450      21.25655232      -0.59800306      -0.61250074       0.84673564
S        3.55078131      14.50865714      18.19852900       0.15664685       0.21073739      -0.13929848
S        4.54447498      16.77343790      20.36033646      -0.25066264      -0.21743299       0.10552992
P        2.04481686      12.31846378       8.03215885      -0.13401576       0.56290573      -0.41098178
S        2.10204720      14.12487836       9.14607770      -0.79426949      -0.02062206       0.10021601
S        1.67227553      10.62357612       8.98006366       0.13357042       0.43894247      -0.27608125
S        0.55336978      12.47449954       6.67126148      -0.58610374       0.40767837      -0.28488624
S        4.03186052      12.38749576       7.48347116      -0.14040863       0.64231456       0.04499421
P       19.51732569      18.71393328      15.86511506      -0.07633190       0.09025325      -0.50782083
S       19.45470689      16.91656125      16.80203382      -0.63611492       0.08582170      -0.42938524
S       20.80971209      19.98796595      16.88292830       0.33340998      -0.44652982      -0.31200308
S       20.03700063      18.47427293      13.89567141      -0.59096392       0.11705250      -0.63451026
S       17.59615989      19.42699285      15.53672018       0.02357956       0.49797525      -0.53514240
P        9.54315147      19.17396347       7.55558492       0.18572304      -0.11930859       0.07437092
S       11.21357251      20.29659700       7.69377653       0.59650517      -0.37276468      -0.06641686
S        8.25051746      19.82638452       8.98421416       0.11504521       0.32261059      -0.15213918
S        8.61995839      19.38102209       5.77808676       0.42065043       0.13644431      -0.00981309
S       10.29561936      17.15314481       7.77729293      -0.39734755      -0.31195898       0.32549910
P        7.80645363       8.22647266      12.26435394      -0.20900993       0.38874514       0.32701614
S        9.81573465       8.23439360      12.68590269      -0.00685054       0.76095525      -0.03204292
S        7.34383137      10.01658058      11.24356737       0.01490296       0.49049929       0.10675921
S        7.44899254       6.67170302      10.98758380       0.65190902       0.39844460       0.38669199
S        6.56768871       8.00449747      13.95233256      -0.10828230       0.13354344       0.45223494
P       20.75590280       3.18059818      12.22238937       0.05159186       0.32869328       0.03971789
S       19.37989790       1.81109872      12.74512943       0.07825225      -0.32093555      -0.01796779
S       22.17997866       2.01611884      11.33666320       0.05008099      -0.48598781      -0.00120513
S       19.99859040       4.33919061      10.72059466       0.47425086      -0.10767376      -0.51309542
S       21.28879861       4.62641677      13.60208657       0.11437977       0.53487998       0.04939132
P        6.26166798      17.76601170       3.99166544       0.04932508      -0.22519442      -0.25377176
S        7.34194187      19.46607045       3.52420060       0.26531461      -0.16493617      -0.33214509
S        4.44836015      18.35641700       4.88515775      -0.27296021      -0.10864074      -0.66296324
S        6.09946940      17.16574355       2.04452520      -0.01908846      -0.38695576      -0.26325708
S        7.32122128      16.31990050       4.93808595       0.06611425      -0.27816945      -0.36947338
P       12.16411820      12.45769833       3.73330270      -0.29288481      -0.00606558       0.10085224
S       12.40394976      13.48215763       5.51510716      -0.65830776      -0.39015699       0.34862868
S       11.22838734      10.72236631       3.84464867      -0.34682880      -0.26476947       0.17746463
S       10.44600538      13.59210182       2.87477988       0.00501650       0.25957119       0.07856165
S       13.66667557      12.17900378       2.20967310      -0.50460541       0.38890320      -0.06086057
P       15.67326982      14.16165442      19.97463211       0.33955937      -0.47307205       0.20061014
S       14.68103632      13.43265878      21.63910985       0.12230013      -0.66819132      -0.01584971
S       17.37799668      15.19241816      20.40685052       0.58613551      -0.63894305      -0.08337243
S       16.17081060      12.62497805      18.75732013       0.19692119      -0.38398137       0.01882054
S       14.48624252      15.48613116      19.05290243       0.60872956      -0.16334717       0.15655590
P       11.77831318      20.58953741      13.09601362      -0.46818364      -0.00845607       0.00335172
S       13.14450950      20.70120941      14.54523150       0.19134688       0.06917824      -0.11597474
S       10.38822311      19.26611738      13.71874291      -0.18513940      -0.62020455       0.04859501
S       10.91902847      22.54837040      13.10296719      -0.38559577       0.65267497      -0.16753188
S       12.17766950      20.16263089      11.25150819      -0.88515565      -0.57451552      -0.40530763
P       10.56544544       4.90351286       8.88890648       0.13314031       0.32279227      -0.08830049
S        9.56802641       4.12136023      10.43805966      -0.26017674      -0.11183597      -0.24945073
S       11.39412515       6.66232068       9.33678904      -0.13740557       0.42561636       0.33368155
S       12.20043758       3.65676851       8.18940996      -0.12874270      -0.45409379      -0.13394634
S        9.59097354       4.71457128       7.13553819       0.09831186       0.86372491      -0.28018054
P        7.71904487      12.20987473      20.76722276      -0.26629707      -0.25165983       0.82652474
S        7.81266809      14.31986299      20.58985800       0.20039785      -0.11345073       0.09486269
S        9.50853866      11.64467867      20.03376361      -0.22936011       0.04862304       0.11830797
S        7.62899774      11.80661273       0.18179770      -0.07991289       0.30313222       0.60864740
S        6.10593287      11.03780069      20.15193398       0.05877781      -0.71941588      -0.41931254
P       14.60980942      13.00978332      14.90639762       0.11361287       0.40567777      -0.29822916
S       13.46540509      14.31710128      16.03787069       0.63573432       0.34487400       0.03276487
S       16.31455464      14.08192490      14.40920905       0.24501690       0.24502364      -0.64532962
S       14.99101877      11.30753808      15.89569821       0.02491903       0.11708933      -0.47475314
S       13.69032460      12.50485030      13.13572221       0.05990867       0.37350876      -0.26381221
P        5.60959801      20.86511966      11.11293610       0.05852487       0.09112203      -0.24857747
S        5.08877257      18.99781010      11.56057716       0.05571339       0.31845647      -0.15615512
S        4.90135392      22.19602915      12.46717854      -0.05213757       0.70466992      -0.31860526
S        7.63959855      21.06250467      11.35160526       0.13100236      -0.09787145      -0.09312481
S        5.00461102      21.73558817       9.32721445       0.20597732       0.66039287      -0.30331710
P       16.49747879       0.61520493       0.60775654       0.44598534      -0.87536587      -1.22810215
S       16.84505674       2.24273170      21.98832332      -1.29830074      -0.85356654      -0.08584891
S       18.36497306       0.27729427       1.36392630      -1.29065561      -0.06295934       0.74820708
S       14.57859915       0.48124933       1.04940125      -0.26212408       0.04102165       0.23618587
S       16.46857527      21.09230057      -0.06477461      -1.01141641       0.36658238      -0.06106605
P       14.17517291       9.55701766       8.72144566       0.24291540       0.55981193       0.32248437
S       13.21389955       8.93618093       7.03641976       0.16775354       0.17952388       0.31859351
S       12.91514284      10.37691694      10.06070955       0.33039090       0.54571753       0.64261476
S       15.11368749       8.22048881       9.92772905      -0.07601709       0.25767881       0.22924472
S       15.36923156      11.18375725       8.34607629       0.36912386       0.76321820       0.93288935
P       15.29932976      15.75953041       4.25020427      -0.25684898       0.24554785       0.22973412
S       16.39658669      16.36393379       2.61214382       0.20255835      -0.45874764       0.20251664
S       16.57541723      14.56013780       5.29660702      -0.30981035       0.25978635       0.50611412
S       14.64074584      17.34085573       5.37997242      -0.06433151       0.89515155      -0.40469258
S       13.71505342      14.88659272       3.41876234      -0.72084019       0.93171528       0.09721088
P       18.07200824       5.63970367       6.48168807       0.17263658       0.27202246       0.04702341
S       16.35120827       6.76204613       6.13981387       0.26926710       0.09709809       0.04686520
S       19.46859408       7.06252977       7.05118279       0.19070043       0.41035580       0.32083759
S       17.83240683       4.02725414       7.61801710      -0.03224428      -0.13970882      -0.47725496
S       19.01099828       5.13110537       4.72950896       0.18080277       0.83782232      -0.17610122
P       14.02287630       1.26668646      10.26523761       0.17946744      -0.00097885      -0.17904845
S       14.28151875       0.05992767       8.68037673       0.49384011      -0.24379316      -0.42979507
S       13.14199160       0.69219141      11.95872547       1.05211307      -0.27307365       0.23896566
S       15.83348188       2.14172962      10.24250357       0.54544912      -0.35705003      -0.36081833
S       12.01980715       1.99886095       9.34346319      -0.32714774       0.07671578       0.58488707
P        2.00422706      15.10331025      12.11433831      -0.24607061       0.08076206       0.11584492
S        0.18683471      15.86425649      12.32487621      -0.42961485       0.11822140      -0.34568814
S        3.33453329      16.39066279      11.37838285      -0.35022263       0.23450066      -0.09007802
S        2.92110201      14.42064058      13.86462303       0.16513669       0.63632152      -0.24995321
S        1.86887619      13.24233612      11.01139461      -0.19975560       0.11880755       0.43754349
P       15.01692392       3.73644807       3.42558490      -0.24235553       0.17007070      -0.30709699
S       15.86078419       1.84007759       3.85108884      -0.17099976      -0.33354736      -0.35962646
S       13.06999813       3.45416524       3.07365057      -0.31119107      -0.72277289      -0.44946458
S       15.20706196       4.77618892       5.20255430      -0.84714769      -0.38014938      -0.19280117
S       15.86292557       4.62779463       1.70435820      -0.33384535      -0.18256066      -0.32550739
P       18.34903004       9.43222680      15.78765894       0.01831354      -0.34005627      -0.36040943
S       17.27978869       9.07696724      17.41469323      -0.21327283      -0.30676556      -0.33247194
S       17.84225543      11.35806235      15.40485125      -0.11113506      -0.40377946      -0.01130889
S       20.42938715       8.95852998      15.96032378       0.03929245      -0.38477286       0.31432753
S       17.76606831       8.02525988      14.40233469       0.65266481      -0.47647050      -0.59701879
Na       0.62745045       0.51753996       6.25188894      -0.26213253      -0.56219186      -0.11219079
Na       1.10146315       0.23246038      10.91607843       0.36265949      -0.98781336      -0.04386161
Na       0.16091531       3.48076876       6.64731156       0.33051597      -0.00155070      -0.04097337
Na       1.37611869       3.68264485      11.55683478       0.37530280      -0.27949481       1.23309772
Na       0.42336775       3.72058937      15.07377440      -0.05499821      -0.66176528       0.63185653
Na       0.62452564       4.74001046      18.11749068       0.09400680      -0.10852975       0.31776072
Na       1.29368547       8.19105641       1.84497898       0.23675425       0.47505752       0.14941200