 104
 energy=-899910.09560692019 cutoff=6.00000000 nneightol=1.20000000 pbc="T T T" Lattice="13.49151700       0.00009400      -0.00068500       0.00009400      13.49179300       0.00076300      -0.00069800       0.00077800      13.74847900" Properties=species:S:1:pos:R:3:forces:R:3:Z:I:1:map_shift:I:3:n_neighb:I:1:force:R:3
 P               4.95448100      6.06924800      6.58742900     -0.40745209     -0.37300080      0.73902518      15       0       0       0      52     -0.49606706     -0.61203819      0.33061248
 P               1.41740500      7.42843900      6.97761100     -0.34797111      0.56424959      0.07623358      15       0      -1      -1      50     -0.44929733      0.45982828     -0.10099325
 S               0.87283000      9.02279800      5.91196700     -0.44076487      0.58730640     -0.07859277      16       0      -1       0      50     -0.44625697      0.72463525      0.02179859
 S               0.63964400      5.62627700      6.65035200     -0.42057227      0.16001688     -0.90695567      16       0       0       0      51     -0.31016833      0.11441438     -0.84104694
 S               6.44689200      6.77521200      8.53895800      1.98800935      2.07581456      0.03506419      16       0      -1      -1      43      1.62968852      1.70109189      0.10918974
 S               3.52955600      7.40147300      5.67781000     -0.73400874      0.15309364     -0.56294182      16       0      -1       0      48     -0.19707907     -0.40679482     -0.72829636
 S               1.47320700      7.84744400      8.91952600     -1.35351386      0.24885688     -0.45324762      16       0      -1      -1      42     -1.28298530      0.31871455      0.18499646
 S               4.42233400      4.11299600      6.12169900      0.34575085      0.43446951     -0.80198567      16       0       0       0      55      0.14341632      0.10179426     -0.98602752
 S               6.53385600      6.86061300      5.54987400     -0.56735010      0.04134193      0.18519156      16       0      -1       0      58     -0.12373695      0.31508764      0.61599228
 P               2.04201800      6.45353300     12.91733700     -1.32547407     -0.08790338     -1.12686302      15       0       0      -1      49     -1.26961708      0.19552362     -1.19770940
 P               4.80848900      6.92890600     10.22757600      1.89814122     -1.51998887     -0.67643035      15       0      -1      -1      36      1.72772777     -0.50840603     -0.14589733
 S               4.45974300      5.09205900      8.76864200     -0.62242620     -1.37556736      1.45132962      16       0       0      -1      48     -0.07148192     -1.15262683      0.90661512
 S               4.52068800      9.29801000      9.70660300      0.94601078      1.50038365      0.02661272      16       0      -1      -1      39      1.07753954      1.27996684      0.05545567
 S               3.52552400      6.41028000      0.38739200      1.84282308     -0.13795737      1.69387349      16       0       0       0      53      1.44527246     -0.15539672      1.49167126
 S               3.02228800      5.63149300     11.11948600     -0.22155430      0.31477089      0.56077873      16       0       0      -1      46     -0.15002953     -0.16552245      0.60125561
 S               6.28190100      6.85546200     11.56687900      0.26035513     -0.30500545      0.97179123      16       0      -1      -1      44      0.33441942     -0.37120648      0.86123435
 S               1.14957700      8.40399100     12.76338200      0.02269612     -0.29411474      0.35533409      16       0      -1      -1      43     -0.11232546     -0.89145060      0.49558619
 S               0.66940100      5.07827300     13.00966500     -0.79463298     -0.78635006     -0.38893117      16       0       0      -1      50     -0.74503733     -0.62229479     -0.10248795
 P               4.25658300      9.75217400      2.62561200      0.00164817      0.86317927      0.71100732      15       0      -1       0      52      0.11280711      0.56202153      0.69449491
 P               2.35111300     12.71258100      1.94393700     -0.64056213     -0.30592553     -0.79652931      15       0      -1       0      40     -0.06787368      0.06015700     -0.04387004
 S               2.85164700      0.20487800      0.07551900     -0.04901619     -0.48477401     -0.86865987      16       0       0       0      43     -0.28415283     -0.24044304     -0.62574970
 S               0.54459300     11.98910200      2.01016200      0.07314108     -0.51697022      0.14354149      16       0      -1       0      50     -0.03327008     -0.61699406     -0.12311208
 S               4.90058600     10.20855200      4.51769000     -0.07132809      0.46934866      0.51282499      16       0      -1       0      50     -0.14014132      0.50851144      0.59200439
 S               3.91303100     11.37706900      1.31396000     -0.79672003     -0.62704382     -0.26034730      16       0      -1       0      44     -0.54467601     -0.99213075     -0.31285022
 S               3.14456700     13.18347000      3.91012700      0.33373439     -0.23543976      0.16104401      16       0      -1       0      42     -0.08038218     -0.31586818     -0.54263398
 S               2.52921100      8.65420400      2.57848400      0.67535252     -0.05827654      0.31635262      16       0      -1       0      53      0.17932996      0.05574483      0.40050875
 S               5.75587100      8.98687500      1.48235100     -0.33544864      0.62311761      0.46994602      16       0      -1       0      50     -0.18522760      0.53481123      0.23222233
 P              11.14831400      9.96010000      2.47268800     -0.10578214     -0.17391759      0.49149061      15      -1      -1       0      43      0.25643154     -0.84779380      0.32088486
 P               9.06152200     12.69882400      2.26270700      0.33165578     -0.19460987     -1.86153929      15      -1      -1       0      48      0.09802422      0.75970000     -1.73693539
 S               9.01966700     13.08468600      0.06464800     -0.33458248      0.78619099      0.49204508      16      -1      -1       0      44     -0.24240743      0.72397091      0.35843834
 S               7.25265500     11.87536600      2.49481700     -0.02134999     -0.28139109      0.76207017      16      -1      -1       0      49      0.07869373     -0.42382813      0.65723386
 S              12.01208800     10.46198600      4.21502100     -0.26973738      0.88658402      0.10371105      16      -1      -1       0      54     -0.28989600      0.94639287      0.10021774
 S              10.53102900     11.48488600      1.23574700     -0.01290661      0.65163043     -0.06187073      16      -1      -1       0      45      0.02184461      0.69216613     -0.36163811
 S               9.97831900     13.45677600      3.89977100      0.30180319      0.03089608     -1.44178367      16      -1      -1       0      52      0.40376513     -0.08151557     -0.74114626
 S               9.30758000      8.89929400      2.83371200      0.89266889      0.96763082      0.71235016      16      -1      -1       0      45      0.63227808      1.44383553      0.62815170
 S              12.07607400      9.46060600      0.48546400      0.20668588      0.28016926      1.03739051      16      -1      -1       0      48      0.58292223      0.44543672      1.34683332
 P               5.45047800      2.45743100      2.02143800     -0.61919988      0.08378889     -0.02187631      15       0       0       0      53     -0.13868345      0.32451852     -0.14705603
 P               1.26442500      2.20433100      2.44714900     -0.05125696     -0.03898804      0.49765415      15       0       0       0      48      0.06900943     -0.34182405      0.65029157
 S               0.13161500      1.52971900      1.04790700     -0.80932700      0.53325696      0.12147894      16       0       0       0      53     -0.99631400      0.45946626     -0.06039139
 S               1.24243600      1.10199300      4.39338300     -0.19502568      0.71113023     -0.27530700      16       0       0       0      53     -0.29347076      0.74190926     -0.17933496
 S               5.34053400      4.46433600      2.50403900      0.40605742      0.36665272     -0.13270885      16       0       0       0      55      0.24355871      0.29589436     -0.06883436
 S               3.29558900      2.13794100      1.23189200      0.53206022      0.32071847     -0.22657260      16       0       0       0      44      0.09701664      0.53703987     -0.23895387
 S               1.32312700      4.17634800      2.94017500     -0.22415104     -0.45292984     -0.13948488      16       0       0       0      56     -0.13124153      0.10901277     -0.20021367
 S               5.70242700      1.33064500      3.72410200      0.64341592      0.90876394     -0.46266320      16       0       0       0      56      0.46684973      0.73285808     -0.14709996
 S               6.33710400      1.87604600      0.35117800     -0.15543278      0.27983595     -0.17178136      16       0       0       0      49      0.01009856      0.08622748     -0.60627472
 P               9.85838000      2.58942500     13.06316400     -1.16441519      0.10801123      0.96595949      15      -1       0      -1      48     -1.08204568     -0.44118227      0.05100656
 P              10.42677900      2.10731100      9.74688000     -0.20152176     -0.54921805      0.05396475      15      -1       0      -1      37      0.17129299     -0.84243318     -0.07753100
 S              11.02504900      0.10916200      8.74171100      1.81333994      0.22023125      0.64120776      16      -1       0      -1      33      1.60411629      0.21285160      0.58199017
 S               9.04302600      3.67724400      9.11861000      0.87111975     -0.10103000      0.80674955      16      -1       0      -1      45      0.34454965      0.32610522      0.81829166
 S              11.54728000      3.32056000     13.58454300      1.45227571      1.11177675     -0.47248921      16      -1       0      -1      52      1.55858466      1.15925272     -0.41622946
 S               9.92598600      1.11845700     11.65523000      0.16609396     -1.37929427     -0.18615561      16      -1       0      -1      41     -0.09201616     -0.64090179      0.06279168
 S              12.64380400      2.74245100     10.29468700     -0.95017282      0.10023633      0.32020692      16      -1       0      -1      41     -0.20101871     -0.47735288      0.57687868
 S               8.35482000      3.79190100     12.55684700      0.15161064      0.99367128     -1.45200440      16      -1       0      -1      49      0.27795839      1.04824060     -1.38262597
 S               9.25278200      1.77932100      1.26010300      0.41403179     -0.41486880     -1.14009446      16      -1       0       0      52     -0.05383241     -0.69314807     -0.75619327
 P              11.96888600      7.24282000      2.49893400      1.28290980      1.21580250     -0.30219157      15      -1      -1       0      50      0.97852260      1.55120526     -0.74179948
 P               8.22818300      6.08231400      2.00754000      1.06779901      0.90274612     -0.69833081      15      -1       0       0      56      1.02043877      0.20184458     -1.06008295
 S               7.01552100      6.96013600      0.79305200     -0.29683983     -0.12077066     -1.44311230      16      -1      -1       0      59     -0.29485190      0.01952719     -1.25493959
 S               8.78044300      4.11192600      1.81563500     -0.36383588     -1.18677807      0.58853260      16      -1       0       0      59     -0.30792847     -0.84397230      0.34139580
 S              11.80396700      7.49619300      4.53366900     -0.45584130      0.49325221     -0.20488765      16      -1      -1       0      51     -0.24244453      0.51878162      0.20472966
 S              10.01202000      7.26077800      1.09963000      0.65184021     -1.00185029     -1.01377386      16      -1      -1       0      49      0.13002056     -1.34159140     -0.97107815
 S               8.15113100      6.37666900      4.00157200     -0.69342479      0.42685985     -0.64316592      16      -1       0       0      60     -0.44492941      0.72656884     -0.53905043
 S              12.63602500      5.46090100      1.88766100     -0.39801224      0.30285473      0.08942972      16      -1       0       0      53     -0.25268761     -0.02793471      0.15052021
 S               0.08283900      8.70063700      2.07246700     -0.87941598     -1.04711964     -0.77038273      16       0      -1       0      51     -0.55685379     -0.87720833     -1.16757993
 P               8.84041200      0.81175500      7.06082800     -0.95903232      1.35451780      1.04634739      15      -1       0      -1      43     -0.64569081      1.12838256      1.15725624
 P              11.24783400      3.60081500      6.48662900     -0.00787510      0.53922519      0.91640882      15      -1       0       0      49      0.29335743      0.28278285      0.85861269
 S              12.95968000      3.29946600      5.32287400      0.08071649     -1.69915233      0.16871227      16      -1       0       0      56     -0.22083280     -1.42567062      0.44324294
 S               9.89422600      5.03939700      6.01003700     -0.44318596     -0.58942064     -0.16600295      16      -1       0       0      55     -0.31431923     -0.22855605     -0.19401978
 S               8.64677600      0.55384500      9.17251000     -1.07975944      0.20511523     -0.42638831      16      -1       0      -1      38     -0.59446599      0.29467823     -0.45959597
 S              10.65017700      1.65930900      5.99419600     -0.39365241     -0.15453114      0.44219115      16      -1       0       0      46     -0.42797347     -0.08578404     -0.03947204
 S              11.93956400      4.08039800      8.36937400      1.23017329      0.06470592     -0.42285069      16      -1       0      -1      49      0.31579843     -0.09115213     -0.42803595
 S               7.25832600      2.00630200      6.56051300     -0.20526788     -0.31795362     -0.39452115      16      -1       0       0      48     -0.32360674     -0.31839701     -0.27260376
 S               8.79810900     12.46452400      6.46406800     -0.49631754     -2.35424707     -0.23132023      16      -1      -1       0      44     -0.83794990     -2.61098651     -0.02896768
 Na             12.13050600      8.58017100     11.97304800      0.01408256     -0.47457368     -0.88737803      11      -1      -1      -1      42      0.05449673     -0.40861231     -0.80468702
 Na              7.17835400      4.59903500      7.22169200      0.87475529     -0.25176986      0.66886934      11      -1       0      -1      51      0.84396535     -0.33364012      0.68589006
 Na              2.02911800      5.20255800      8.65301400     -0.91018303     -0.73672328      0.82619044      11       0       0      -1      46     -1.06936483     -0.71771383      0.73973081
 Na              2.03824300     10.88646700      4.23125500     -0.84873800     -0.49034532      0.00340624      11       0      -1       0      48     -0.68596861     -0.40833592     -0.00872420
 Na              5.04256400      7.18450600      3.20141400      0.85018071     -0.07213602     -0.12913983      11       0      -1       0      59      0.77294239      0.18691365     -0.19328063
 Na              9.37068500     10.95774400      4.27809200     -0.22088740      0.98850722      0.84298479      11      -1      -1       0      46     -0.11336081      1.04870570      0.91450288
 Na              6.60025100      4.06736300     10.39822100      0.19254566      0.29138454      0.05737640      11       0       0      -1      49      0.23324033      0.21301293      0.12011849
 Na             11.95891900      5.17697200      4.42109500      1.28269214     -0.07304963      0.42620497      11      -1       0       0      56      1.46632907     -0.00103155      0.31008025
 Na              3.64160000      1.95451900      5.51923100     -0.19435770     -1.86440589      1.22206627      11       0       0       0      51     -0.12108570     -1.94108267      1.15549703
 Na              6.79826100      9.80014000      7.47509300     -0.42208978     -0.11109836      0.72600307      11      -1      -1      -1      43     -0.45560839      0.02460980      0.57736158
 Na             13.23584600      1.42039200      7.30047400     -0.40963134     -0.08196445     -0.32961707      11      -1       0      -1      42     -0.61698321      0.00767665     -0.35362498
 Na              8.44672400      1.95705200      3.77178800     -0.55122103      0.20862214      0.43397017      11      -1       0       0      58     -0.41663336      0.07680819      0.44331605
 Na             10.03347400      7.71725700      9.46610600     -0.49047549      0.13083618     -0.47669865      11      -1      -1      -1      45     -0.42308205     -0.02907293     -0.46669165
 Na              1.42072400      1.63686500      9.58717600      0.69652216      0.87072764      0.33364361      11       0       0      -1      35      0.71288659      0.98578302      0.40889625
 Na              1.20850900      6.69901000      4.29846900     -1.27819786      0.63280040     -0.35961617      11       0       0       0      56     -1.31180629      0.60029593     -0.21565696
 Na              0.19928200     12.88762900      9.72040900     -0.68727382     -0.76281353      0.27917387      11       0      -1      -1      39     -0.79905814     -0.72276808      0.35943777
 Na              7.13119900      8.96440900      3.93438700     -0.66042333      0.38190871     -0.17315915      11      -1      -1       0      53     -0.72612112      0.35801593     -0.15463594
 Na             10.60842600      5.52715500     11.27742700      0.00344118     -1.03327768      0.51604959      11      -1       0      -1      47     -0.01611791     -1.08823051      0.47685638
 Na              6.40253400      4.59879700      0.15308000     -0.68118159      0.04082127     -0.61291781      11       0       0       0      51     -0.72311178     -0.03624646     -0.61619017
 Na              2.70031100      8.21650400     10.95421400     -0.00907687      0.96147003      0.00811945      11       0      -1      -1      38     -0.07119950      0.92155047     -0.09877915
 Na              3.48708800      3.10520600      3.58872100      0.05740377      0.11572185      0.65811667      11       0       0       0      50     -0.00385251      0.06304951      0.65219603
 Na              5.20350600     13.36683200      1.52810900      0.90525289     -0.02271421     -0.02189076      11       0      -1       0      44      0.89095304     -0.07492675     -0.07618294
 Na             11.28940200      2.94651800      2.81158700      0.56461043     -0.87814139     -0.60701629      11      -1       0       0      58      0.61473675     -0.98974778     -0.66643408
 Na              9.21308200      8.95246000      6.06670900      0.95406323     -0.87142000      0.06419040      11      -1      -1       0      52      0.91466614     -0.76019925     -0.02819929
 Na              3.88675800      7.65070300      8.06395500     -0.09976826      0.72574509      0.30862277      11       0      -1      -1      39     -0.49241720      0.93102036      0.32655428
 Na              4.35379600      1.03274900     10.57815600      0.12017755     -0.19159281      0.14718283      11       0       0      -1      40      0.13951659     -0.03418220      0.34790016
 Na             10.21079800      5.59208700      3.21099000      0.98550659     -0.63403949      0.47018787      11      -1       0       0      56      1.01846201     -0.50489795      0.47887670
 Na              3.35727400     10.30773100      7.03431200     -0.19492881      0.00622662      0.23936524      11       0      -1      -1      45     -0.20788351     -0.01152643      0.07788255
 Na              3.22869200      5.78453600      3.47115800      0.03033210     -0.36361478     -0.43870586      11       0       0       0      56     -0.07928634     -0.34747469     -0.46646684
 Na              8.16979000     10.02585500      0.58237900      0.02870804     -0.01211537     -0.18438275      11      -1      -1       0      48      0.07289290     -0.07897071     -0.07014264
 Na              3.48769100      9.11487600      0.01886100     -0.08062075     -0.18161536     -0.57493914      11       0      -1       0      46      0.10620803     -0.01585214     -0.37702019
 Na              6.72213200      4.01654200      4.69242000      0.21097826      0.03682375     -0.41937012      11       0       0       0      59      0.16157870      0.07852313     -0.35242752
 104
 energy=-899904.15742942865 cutoff=6.00000000 nneightol=1.20000000 pbc="T T T" Lattice="13.50634900       0.00299700       0.00247900       0.00299700      13.50854500       0.00147600       0.00252600       0.00150400      13.76422900" Properties=species:S:1:pos:R:3:forces:R:3:Z:I:1:map_shift:I:3:n_neighb:I:1:force:R:3
 P               4.97130000     10.54930700      7.14670900     -0.31139321     -0.10127444      0.17359640      15       0      -1      -1      48     -0.49461746     -0.26168523      0.12703484
 P               1.63322500     11.84367300      6.23798000     -0.15158961     -0.24720129     -0.99215785      15       0      -1       0      39     -0.14527034     -0.05857614     -0.49892371
 S               1.14074000     12.96198100      4.65360800      0.39471473     -0.02874359     -0.99820507      16       0      -1       0      36      0.04121823      0.01256559     -0.65911505
 S               0.96340400      9.93938300      6.73750300      0.35889563      0.13880221     -0.84144731      16       0      -1       0      42      0.43033186     -0.11317574     -0.89791976
 S               5.60555000     11.69482100      8.84863600     -0.73014266      0.15376112     -0.79579816      16       0      -1      -1      55     -0.90127982      0.30887823     -0.54760320
 S               3.76223600     11.58622500      5.71581100     -0.41353307      0.17911434      0.13842026      16       0      -1       0      36     -0.19160250     -0.14593669     -0.34491911
 S               1.25286900     13.05704500      7.80411600      0.84527015      0.07180837     -0.06998655      16       0      -1      -1      49      0.23878020     -0.31693207     -0.71985030
 S               4.45501500      8.61937100      7.55745400     -0.05208038     -0.28767472      0.36878322      16       0      -1      -1      48     -0.02583761     -0.46333933      0.50181796
 S               6.68179700     10.77533800      6.13562000     -0.62578554     -0.48111890      0.05591071      16       0      -1       0      49     -0.73457102     -0.27068024     -0.09385175
 P               3.78832300      9.81174500     12.73228000     -0.66044506     -0.87749798      0.30445430      15       0      -1      -1      42     -0.42712200     -1.00210329     -0.31447999
 P               2.83766700     12.38208200     10.46508400      0.62988226      0.51750628      1.63677791      15       0      -1      -1      46      0.98671730      0.15119297      0.67011009
 S               3.68396100     12.91729300      8.48407400     -0.74139597     -0.66961972      0.31149296      16       0      -1      -1      50      0.40247109     -0.01422121      0.79616192
 S               0.84818800     12.38972100     10.69236200      1.38327721      0.36638242     -0.06849079      16       0      -1      -1      58      0.61359306      0.11326160      0.13935111
 S               4.58460500     11.11427700      0.27881500     -0.70642445     -0.09676959      0.99826805      16       0      -1       0      42     -0.60287398      0.01808643      1.03955008
 S               4.02084900     10.53104700     10.74781800      0.24614118     -0.01204344     -0.06234752      16       0      -1      -1      53      0.18589036     -0.38381958     -0.02453306
 S               3.02372500      0.82367700     11.31483800      0.09005043      0.44689330      0.78449010      16       0       0      -1      44      0.11361677      0.43622193      1.70646158
 S               1.91349600      9.31184900     13.03963400     -0.33302682     -0.48863801      0.24730910      16       0      -1      -1      47     -0.38022063     -0.61132320      0.23895008
 S               5.07331700      8.13183700     12.21713700     -0.74090091     -0.62117165     -0.24684144      16       0      -1      -1      50     -0.69539508     -0.91159526     -0.27404619
 P              10.23395100      5.40046700     10.11483100      0.54525144     -0.83314543     -0.54067209      15      -1       0      -1      55      0.33119467     -0.54040401     -0.90394102
 P              10.45047000      7.80814600     12.45867500     -0.10559603      0.70632936     -0.27371572      15      -1      -1      -1      57     -0.35837432      0.83246141     -0.57678087
 S               9.95487900      9.75662600     11.93404100     -0.12690127      1.75581891      0.08334755      16      -1      -1      -1      59     -0.27377736      0.73900411     -0.52627762
 S               8.99603000      7.63355500     13.73210400     -0.51429883     -0.70007137      0.62781018      16      -1      -1      -1      53     -0.58662133     -0.66343134      0.79733514
 S              12.25572400      5.17987100     10.80165400     -0.48692320      0.44932110     -0.42908016      16      -1       0      -1      50     -0.38029693      0.47541063     -0.14230637
 S               9.53526700      7.37699000     10.56681100     -0.88114099     -0.10820126     -0.56333602      16      -1      -1      -1      61     -0.38752371     -0.37446545     -0.48526470
 S              12.35566100      7.76642500     12.78683200      0.54247357     -0.90535040     -0.05544468      16      -1      -1      -1      55      0.77908522     -0.38699375     -0.56313697
 S               8.88482400      4.64095300     11.80814800     -0.64791976      0.54200425     -0.58229609      16      -1       0      -1      56     -0.63322200      0.56888492     -0.64929446
 S               9.43214100      5.60567800      8.07501000     -1.16001175      0.37204117     -0.05581559      16      -1       0      -1      53     -0.93049189      0.30601941     -0.01996868
 P              10.97743400      1.91433300     13.34675100      1.06942374      0.58673805      0.13543582      15      -1       0      -1      50      0.67627867      0.17591540      0.04732027
 P               9.26046900      2.76749500      9.76481400      0.50918587      0.90327828     -1.00227396      15      -1       0      -1      52      0.08236768      0.78550203     -0.45467678
 S               8.61310800      1.51734800      8.36886700     -0.80220111      0.46594909     -0.39837344      16      -1       0      -1      56     -0.67370308      0.92638130     -0.72549863
 S               7.24751500      3.65989600     10.40820400     -0.65785086      1.36443483      0.05770346      16      -1       0      -1      53     -0.66484687      0.93575684     -0.16761142
 S              12.63959600      2.96429400     12.93566400      0.01653651      0.82816653      0.19156778      16      -1       0      -1      48      0.70896681      0.55079753     -0.10512285
 S              10.08633000      1.80791200     11.39316900     -0.36809366     -0.56030539      0.59780697      16      -1       0      -1      57     -0.56766318      0.09551052      0.59624349
 S              11.12043800      3.42370800      9.06488700      0.40151505     -0.83387671     -0.80861487      16      -1       0      -1      51      0.31099170     -0.61906847     -0.95060750
 S               9.57038000      2.76996700      0.63842200     -0.98345939      0.54864327      1.88254254      16      -1       0       0      45     -0.68364830      0.43987111      1.83595836
 S              11.88498500      0.32177000      0.28604300      0.63152765     -1.49046136      1.25973186      16      -1       0       0      49      0.82453947     -1.32202579      1.52008537
 P               5.01359200      1.18797100     12.14824500     -2.14688300     -0.46189576     -0.98402795      15       0       0      -1      46     -1.07387498      0.31183290     -0.81400529
 P               2.19451500      3.73826800     10.90332700     -0.01696363      0.18564836     -0.27251736      15       0       0      -1      40      0.41512129      0.63052819     -0.29328577
 S               2.27340100      4.73201300      9.07654300     -0.79602662      1.60640757     -0.76176566      16       0       0      -1      45     -0.86046686      1.24039530     -0.19598218
 S               0.64669800      2.44829500     11.25514700      0.74348523      0.00648138     -0.89347740      16       0       0      -1      44      0.37160311      0.04392154     -0.62725742
 S               5.14071300      2.03278000      0.16871400      0.44209538      0.20593919      0.08934826      16       0       0       0      42      0.37467486      0.14480686      0.12753719
 S               4.01353600      2.83546500     10.27589700      0.68033821      0.35456898      0.17140813      16       0       0      -1      42     -0.01420666      0.18727563      0.24138133
 S               2.44770400      4.74140800     12.59827500      0.36238667      0.64670717     -0.02265432      16       0       0      -1      43      0.36893019      0.58791848     -0.21683153
 S               3.01436100     12.79238100     12.88284800      0.24878731     -0.49009843      0.49612183      16       0      -1      -1      43     -0.02172665      0.27335313      0.12212684
 S               6.27385400      0.83567900     10.61320800      1.08329138     -1.24715354      1.51259987      16       0       0      -1      56      1.03942156     -1.35083122      1.53448497