104
Lattice="13.491517 9.4e-05 -0.000685 9.4e-05 13.491793 0.000763 -0.000698 0.000778 13.748479" Properties=species:S:1:pos:R:3:forces:R:3 energy=-899909.755838597 pbc="T T T"
P        4.95448100       6.06924800       6.58742900      -0.40745209      -0.37300080       0.73902518
P        1.41740500       7.42843900       6.97761100      -0.34797111       0.56424959       0.07623358
S        0.87283000       9.02279800       5.91196700      -0.44076487       0.58730640      -0.07859277
S        0.63964400       5.62627700       6.65035200      -0.42057227       0.16001688      -0.90695567
S        6.44689200       6.77521200       8.53895800       1.98800935       2.07581456       0.03506419
S        3.52955600       7.40147300       5.67781000      -0.73400874       0.15309364      -0.56294182
S        1.47320700       7.84744400       8.91952600      -1.35351386       0.24885688      -0.45324762
S        4.42233400       4.11299600       6.12169900       0.34575085       0.43446951      -0.80198567
S        6.53385600       6.86061300       5.54987400      -0.56735010       0.04134193       0.18519156
P        2.04201800       6.45353300      12.91733700      -1.32547407      -0.08790338      -1.12686302
P        4.80848900       6.92890600      10.22757600       1.89814122      -1.51998887      -0.67643035
S        4.45974300       5.09205900       8.76864200      -0.62242620      -1.37556736       1.45132962
S        4.52068800       9.29801000       9.70660300       0.94601078       1.50038365       0.02661272
S        3.52552400       6.41028000       0.38739200       1.84282308      -0.13795737       1.69387349
S        3.02228800       5.63149300      11.11948600      -0.22155430       0.31477089       0.56077873
S        6.28190100       6.85546200      11.56687900       0.26035513      -0.30500545       0.97179123
S        1.14957700       8.40399100      12.76338200       0.02269612      -0.29411474       0.35533409
S        0.66940100       5.07827300      13.00966500      -0.79463298      -0.78635006      -0.38893117
P        4.25658300       9.75217400       2.62561200       0.00164817       0.86317927       0.71100732
P        2.35111300      12.71258100       1.94393700      -0.64056213      -0.30592553      -0.79652931
S        2.85164700       0.20487800       0.07551900      -0.04901619      -0.48477401      -0.86865987
S        0.54459300      11.98910200       2.01016200       0.07314108      -0.51697022       0.14354149
S        4.90058600      10.20855200       4.51769000      -0.07132809       0.46934866       0.51282499
S        3.91303100      11.37706900       1.31396000      -0.79672003      -0.62704382      -0.26034730
S        3.14456700      13.18347000       3.91012700       0.33373439      -0.23543976       0.16104401
S        2.52921100       8.65420400       2.57848400       0.67535252      -0.05827654       0.31635262
S        5.75587100       8.98687500       1.48235100      -0.33544864       0.62311761       0.46994602
P       11.14831400       9.96010000       2.47268800      -0.10578214      -0.17391759       0.49149061
P        9.06152200      12.69882400       2.26270700       0.33165578      -0.19460987      -1.86153929
S        9.01966700      13.08468600       0.06464800      -0.33458248       0.78619099       0.49204508
S        7.25265500      11.87536600       2.49481700      -0.02134999      -0.28139109       0.76207017
S       12.01208800      10.46198600       4.21502100      -0.26973738       0.88658402       0.10371105
S       10.53102900      11.48488600       1.23574700      -0.01290661       0.65163043      -0.06187073
S        9.97831900      13.45677600       3.89977100       0.30180319       0.03089608      -1.44178367
S        9.30758000       8.89929400       2.83371200       0.89266889       0.96763082       0.71235016
S       12.07607400       9.46060600       0.48546400       0.20668588       0.28016926       1.03739051
P        5.45047800       2.45743100       2.02143800      -0.61919988       0.08378889      -0.02187631
P        1.26442500       2.20433100       2.44714900      -0.05125696      -0.03898804       0.49765415
S        0.13161500       1.52971900       1.04790700      -0.80932700       0.53325696       0.12147894
S        1.24243600       1.10199300       4.39338300      -0.19502568       0.71113023      -0.27530700
S        5.34053400       4.46433600       2.50403900       0.40605742       0.36665272      -0.13270885
S        3.29558900       2.13794100       1.23189200       0.53206022       0.32071847      -0.22657260
S        1.32312700       4.17634800       2.94017500      -0.22415104      -0.45292984      -0.13948488
S        5.70242700       1.33064500       3.72410200       0.64341592       0.90876394      -0.46266320
S        6.33710400       1.87604600       0.35117800      -0.15543278       0.27983595      -0.17178136
P        9.85838000       2.58942500      13.06316400      -1.16441519       0.10801123       0.96595949
P       10.42677900       2.10731100       9.74688000      -0.20152176      -0.54921805       0.05396475
S       11.02504900       0.10916200       8.74171100       1.81333994       0.22023125       0.64120776
S        9.04302600       3.67724400       9.11861000       0.87111975      -0.10103000       0.80674955
S       11.54728000       3.32056000      13.58454300       1.45227571       1.11177675      -0.47248921
S        9.92598600       1.11845700      11.65523000       0.16609396      -1.37929427      -0.18615561
S       12.64380400       2.74245100      10.29468700      -0.95017282       0.10023633       0.32020692
S        8.35482000       3.79190100      12.55684700       0.15161064       0.99367128      -1.45200440
S        9.25278200       1.77932100       1.26010300       0.41403179      -0.41486880      -1.14009446
P       11.96888600       7.24282000       2.49893400       1.28290980       1.21580250      -0.30219157
P        8.22818300       6.08231400       2.00754000       1.06779901       0.90274612      -0.69833081
S        7.01552100       6.96013600       0.79305200      -0.29683983      -0.12077066      -1.44311230
S        8.78044300       4.11192600       1.81563500      -0.36383588      -1.18677807       0.58853260
S       11.80396700       7.49619300       4.53366900      -0.45584130       0.49325221      -0.20488765
S       10.01202000       7.26077800       1.09963000       0.65184021      -1.00185029      -1.01377386
S        8.15113100       6.37666900       4.00157200      -0.69342479       0.42685985      -0.64316592
S       12.63602500       5.46090100       1.88766100      -0.39801224       0.30285473       0.08942972
S        0.08283900       8.70063700       2.07246700      -0.87941598      -1.04711964      -0.77038273
P        8.84041200       0.81175500       7.06082800      -0.95903232       1.35451780       1.04634739
P       11.24783400       3.60081500       6.48662900      -0.00787510       0.53922519       0.91640882
S       12.95968000       3.29946600       5.32287400       0.08071649      -1.69915233       0.16871227
S        9.89422600       5.03939700       6.01003700      -0.44318596      -0.58942064      -0.16600295
S        8.64677600       0.55384500       9.17251000      -1.07975944       0.20511523      -0.42638831
S       10.65017700       1.65930900       5.99419600      -0.39365241      -0.15453114       0.44219115
S       11.93956400       4.08039800       8.36937400       1.23017329       0.06470592      -0.42285069
S        7.25832600       2.00630200       6.56051300      -0.20526788      -0.31795362      -0.39452115
S        8.79810900      12.46452400       6.46406800      -0.49631754      -2.35424707      -0.23132023
Na      12.13050600       8.58017100      11.97304800       0.01408256      -0.47457368      -0.88737803
Na       7.17835400       4.59903500       7.22169200       0.87475529      -0.25176986       0.66886934
Na       2.02911800       5.20255800       8.65301400      -0.91018303      -0.73672328       0.82619044
Na       2.03824300      10.88646700       4.23125500      -0.84873800      -0.49034532       0.00340624
Na       5.04256400       7.18450600       3.20141400       0.85018071      -0.07213602      -0.12913983
Na       9.37068500      10.95774400       4.27809200      -0.22088740       0.98850722       0.84298479
Na       6.60025100       4.06736300      10.39822100       0.19254566       0.29138454       0.05737640
Na      11.95891900       5.17697200       4.42109500       1.28269214      -0.07304963       0.42620497
Na       3.64160000       1.95451900       5.51923100      -0.19435770      -1.86440589       1.22206627
Na       6.79826100       9.80014000       7.47509300      -0.42208978      -0.11109836       0.72600307
Na      13.23584600       1.42039200       7.30047400      -0.40963134      -0.08196445      -0.32961707
Na       8.44672400       1.95705200       3.77178800      -0.55122103       0.20862214       0.43397017
Na      10.03347400       7.71725700       9.46610600      -0.49047549       0.13083618      -0.47669865
Na       1.42072400       1.63686500       9.58717600       0.69652216       0.87072764       0.33364361
Na       1.20850900       6.69901000       4.29846900      -1.27819786       0.63280040      -0.35961617
Na       0.19928200      12.88762900       9.72040900      -0.68727382      -0.76281353       0.27917387
Na       7.13119900       8.96440900       3.93438700      -0.66042333       0.38190871      -0.17315915
Na      10.60842600       5.52715500      11.27742700       0.00344118      -1.03327768       0.51604959
Na       6.40253400       4.59879700       0.15308000      -0.68118159       0.04082127      -0.61291781
Na       2.70031100       8.21650400      10.95421400      -0.00907687       0.96147003       0.00811945
Na       3.48708800       3.10520600       3.58872100       0.05740377       0.11572185       0.65811667
Na       5.20350600      13.36683200       1.52810900       0.90525289      -0.02271421      -0.02189076
Na      11.28940200       2.94651800       2.81158700       0.56461043      -0.87814139      -0.60701629
Na       9.21308200       8.95246000       6.06670900       0.95406323      -0.87142000       0.06419040
Na       3.88675800       7.65070300       8.06395500      -0.09976826       0.72574509       0.30862277
Na       4.35379600       1.03274900      10.57815600       0.12017755      -0.19159281       0.14718283
Na      10.21079800       5.59208700       3.21099000       0.98550659      -0.63403949       0.47018787
Na       3.35727400      10.30773100       7.03431200      -0.19492881       0.00622662       0.23936524
Na       3.22869200       5.78453600       3.47115800       0.03033210      -0.36361478      -0.43870586
Na       8.16979000      10.02585500       0.58237900       0.02870804      -0.01211537      -0.18438275
Na       3.48769100       9.11487600       0.01886100      -0.08062075      -0.18161536      -0.57493914
Na       6.72213200       4.01654200       4.69242000       0.21097826       0.03682375      -0.41937012
104
Lattice="13.506349 0.002997 0.002479 0.002997 13.508545 0.001476 0.002526 0.001504 13.764229" Properties=species:S:1:pos:R:3:forces:R:3 energy=-899902.756536312 pbc="T T T"
P        4.97130000      10.54930700       7.14670900      -0.31139321      -0.10127444       0.17359640
P        1.63322500      11.84367300       6.23798000      -0.15158961      -0.24720129      -0.99215785
S        1.14074000      12.96198100       4.65360800       0.39471473      -0.02874359      -0.99820507
S        0.96340400       9.93938300       6.73750300       0.35889563       0.13880221      -0.84144731
S        5.60555000      11.69482100       8.84863600      -0.73014266       0.15376112      -0.79579816
S        3.76223600      11.58622500       5.71581100      -0.41353307       0.17911434       0.13842026
S        1.25286900      13.05704500       7.80411600       0.84527015       0.07180837      -0.06998655
S        4.45501500       8.61937100       7.55745400      -0.05208038      -0.28767472       0.36878322
S        6.68179700      10.77533800       6.13562000      -0.62578554      -0.48111890       0.05591071
P        3.78832300       9.81174500      12.73228000      -0.66044506      -0.87749798       0.30445430
P        2.83766700      12.38208200      10.46508400       0.62988226       0.51750628       1.63677791
S        3.68396100      12.91729300       8.48407400      -0.74139597      -0.66961972       0.31149296
S        0.84818800      12.38972100      10.69236200       1.38327721       0.36638242      -0.06849079
S        4.58460500      11.11427700       0.27881500      -0.70642445      -0.09676959       0.99826805
S        4.02084900      10.53104700      10.74781800       0.24614118      -0.01204344      -0.06234752
S        3.02372500       0.82367700      11.31483800       0.09005043       0.44689330       0.78449010
S        1.91349600       9.31184900      13.03963400      -0.33302682      -0.48863801       0.24730910
S        5.07331700       8.13183700      12.21713700      -0.74090091      -0.62117165      -0.24684144
P       10.23395100       5.40046700      10.11483100       0.54525144      -0.83314543      -0.54067209
P       10.45047000       7.80814600      12.45867500      -0.10559603       0.70632936      -0.27371572
S        9.95487900       9.75662600      11.93404100      -0.12690127       1.75581891       0.08334755
S        8.99603000       7.63355500      13.73210400      -0.51429883      -0.70007137       0.62781018
S       12.25572400       5.17987100      10.80165400      -0.48692320       0.44932110      -0.42908016
S        9.53526700       7.37699000      10.56681100      -0.88114099      -0.10820126      -0.56333602
S       12.35566100       7.76642500      12.78683200       0.54247357      -0.90535040      -0.05544468
S        8.88482400       4.64095300      11.80814800      -0.64791976       0.54200425      -0.58229609
S        9.43214100       5.60567800       8.07501000      -1.16001175       0.37204117      -0.05581559
P       10.97743400       1.91433300      13.34675100       1.06942374       0.58673805       0.13543582
P        9.26046900       2.76749500       9.76481400       0.50918587       0.90327828      -1.00227396
S        8.61310800       1.51734800       8.36886700      -0.80220111       0.46594909      -0.39837344
S        7.24751500       3.65989600      10.40820400      -0.65785086       1.36443483       0.05770346
S       12.63959600       2.96429400      12.93566400       0.01653651       0.82816653       0.19156778
S       10.08633000       1.80791200      11.39316900      -0.36809366      -0.56030539       0.59780697
S       11.12043800       3.42370800       9.06488700       0.40151505      -0.83387671      -0.80861487
S        9.57038000       2.76996700       0.63842200      -0.98345939       0.54864327       1.88254254
S       11.88498500       0.32177000       0.28604300       0.63152765      -1.49046136       1.25973186
P        5.01359200       1.18797100      12.14824500      -2.14688300      -0.46189576      -0.98402795
P        2.19451500       3.73826800      10.90332700      -0.01696363       0.18564836      -0.27251736
S        2.27340100       4.73201300       9.07654300      -0.79602662       1.60640757      -0.76176566
S        0.64669800       2.44829500      11.25514700       0.74348523       0.00648138      -0.89347740
S        5.14071300       2.03278000       0.16871400       0.44209538       0.20593919       0.08934826
S        4.01353600       2.83546500      10.27589700       0.68033821       0.35456898       0.17140813
S        2.44770400       4.74140800      12.59827500       0.36238667       0.64670717      -0.02265432
S        3.01436100      12.79238100      12.88284800       0.24878731      -0.49009843       0.49612183
S        6.27385400       0.83567900      10.61320800       1.08329138      -1.24715354       1.51259987
P        8.82621800      10.90480200      13.46901300       1.46049488      -0.77737057       0.44154254
P       11.67561500      11.60101900       9.87818300      -0.04971333      -0.50705307      -0.15770084
S       11.08992900      11.15579900       7.95776700       0.22899334       0.05374553       0.29434788
S       11.92075600      13.46008500      10.50206700       0.11234169       0.19209277       0.52067724
S       10.63224300      10.31759600       0.60426500       0.09601849       0.61236758       1.85290082
S        8.35880000      10.90775000      10.74643400      -0.41848235       1.08464422      -0.53374618
S       12.83903200      10.04957500      10.63506600       0.95176065      -0.26977383      -0.41735652
S        8.97322400      12.90099200       0.26244200      -1.18788563       0.22790051       0.61423387
S        6.95936200      10.20810800      13.15684000       1.17118027      -1.28539175       1.35451933
P        8.16783600       7.03990600       2.76575200      -0.27334775      -0.32907145       0.30968755
P       12.08671200       6.31126200       1.97765000       1.12717330       0.27422869       0.77828822
S       12.87758400       4.81081900       0.90235700       0.18194184       0.01082126       0.79594620
S       13.02896300       8.21623200       1.61646200       0.78420941      -0.82727542       1.47805613
S        8.32840500       6.47508100       4.81572400      -0.98940503      -0.92018911      -0.34708016
S        9.83313100       5.57797100       1.96290500      -0.09120870      -0.01647154       0.63152990
S       12.35622200       5.93435000       4.07481300       0.39261788      -0.75909429       0.52529830
S        8.07065500       9.25492600       2.33723300      -0.93012191      -0.95327632      -0.78718959
S        6.43568100       6.25242000       2.09844000      -0.35182172      -0.10133277       0.06191419
P        9.33954300      12.86235500       7.21107600      -0.07816382       0.26965909       0.19904742
P       10.98161000      10.11854800       5.95119800       1.68385750       0.00923537      -0.46814341
S       10.28067300       8.88205900       4.48993000      -0.31513368       0.08919945       0.91064696
S       12.38198400      11.17350000       5.01012900       0.10251906       0.41720009      -0.95662014
S        8.97721900      12.33272200       9.29127500      -1.08954173       0.06154261      -0.46391184
S        9.15309700      11.16624400       5.91447300      -0.21752164       0.72420424      -0.64103398
S       11.51253600       8.43780100       7.50100700       0.79307954      -0.87641585      -0.57271753
S       10.97742100       0.47184100       6.91011900       0.76148567       0.99654713      -1.75758775
S        7.17383100      13.32031200       7.35087900       0.27557910       0.39006764      -1.54603695
Na       4.86225700       5.28763200      11.11385600      -0.71829350      -0.33984679       0.40515929
Na       8.36106000       7.93914100       6.88349600       0.29564302      -0.33046431      -0.02144411
Na       7.47052300       2.49447800       4.31503200       0.13626344       0.21072466      -0.17554844
Na      11.96074200      11.56380700      12.63683600       0.99321383       0.23621251       0.34195171
Na      12.52319800       7.50286100       9.95803200       0.21361931       0.43245154      -0.13166559
Na       6.48752600       9.50128400      10.51406600      -1.53173335      -0.63220525       0.35260855
Na       2.63655900       8.21154800       3.04649400      -0.80524532      -0.02591380      -0.33522433
Na       7.80921600      13.46452100       2.58896700      -0.39168478       0.08559016      -0.08796576
Na       2.26759300       7.79711500      10.03343800       0.38628199      -0.49991484       0.56807510
Na      10.34772700      11.85624600       3.08716300       0.55715925      -0.56437827      -0.05329768
Na      13.24090300       5.66817800       7.41830500       0.21081698      -0.36798671       0.46435546
Na       6.13181900       2.13106500       8.52032600      -0.75982123       0.07822048      -0.82176755
Na       8.23749700       9.68421300       8.67501900      -0.04274712       0.52304439      -1.62214641
Na       5.94329800       4.54855600       6.85992600       0.26161844       0.68320528      -0.13527031
Na      10.79281400       5.27936400      13.09425800       0.99397385      -0.59124988       1.08278281
Na      13.46584600       1.23328700       9.08910100      -0.10947464       0.94125209      -0.60817586
Na       9.55137500      12.99454400      11.54453800       0.33042406      -0.11141753       0.39563411
Na      12.91945700       8.26241900       5.14854400       0.67573957       0.69565556      -0.58279262
Na       6.59945700       6.69465600       9.38766500       0.49870533      -0.34948036      -0.18771132
Na      10.04304900       3.42213600       5.18806000       0.26188435       0.25747895       0.45558566
Na       5.25555600       9.35915400       3.19073300       0.28081930       0.28578129      -0.59307618
Na       0.99674900       4.92577000       3.14656200       0.48076705      -0.21864818      -0.32825602
Na       6.92353400      12.48496200      12.48275500      -1.42000303       1.15090635      -0.50003948
Na      10.56556000       9.33623700       9.62508600       0.27324024       0.12631521      -0.62508415
Na       7.63720800       1.99137800      12.81376000       0.29351916       0.39951927      -0.03309965
Na       2.11385600      10.38755400       8.81737200      -0.16257540       0.13862371       0.46612824
Na       4.82572700       2.35983500       5.18022000      -0.81897668      -0.52616899      -0.07026949
Na      12.25037200       1.62565300       3.38611200       0.06402851      -0.37256682      -0.29040724
Na      10.77835900       6.63192900       5.98061900      -0.80494172      -0.53760888      -0.42154078
Na       6.88994800       6.32421200      13.16057000      -0.02701453      -0.18712495       0.24707859
Na      10.54144400       8.33845200       2.11435100      -0.33393381       0.52480453      -0.30583049
Na       7.53796100       9.18299500       4.61661500       0.52428031      -0.76598315       0.62615503
104
Lattice="13.496447 0.001016 0.001645 0.001016 13.498887 0.003573 0.001676 0.003641 13.747169" Properties=species:S:1:pos:R:3:forces:R:3 energy=-899900.448433645 pbc="T T T"
P        8.59767800      11.39913500       3.44666100      -0.23561499       0.04512113      -0.15858178
P       11.52481300      11.15134600       0.95873200      -0.17318675       0.09276848       0.10712169
S       11.18840700      10.41939300      12.91594000      -0.29123763      -0.66330483      -1.13981199
S       12.15610600      13.02213800       1.17894400       0.00132781       0.16261184       0.13518754
S        9.55482000      10.13797200       4.86547600      -0.42817220       0.19069589      -0.36900682
S        9.37627700      10.87543200       1.47201300      -0.20274603      -0.43645835       0.06240726
S       12.64467300       9.81303400       2.27315100       0.16457214      -0.07598895       0.28052659
S        9.06995000      13.34224400       3.86474800      -0.36891809      -0.40048222      -0.18189202
S        6.69814500      10.89888900       3.30574400      -0.45687646      -0.24611387       0.00364032
P        1.69963100       6.86470000       7.37002100       0.12542877       0.67684265      -1.04242493
P        4.99631000       6.95343100       6.05737800       0.72987733       0.92725005      -1.48553321
S        5.58954200       6.25545100       4.15115700      -0.92838361       0.69979409      -1.64523396
S        5.26811200       8.93956400       6.13688300      -0.17946524       1.23103903      -0.41896166
S        2.18916500       5.85693800       9.16548400      -0.34400470       0.33773433       0.13794142
S        3.06128800       6.52517000       5.73662500      -0.97264382       0.98785626      -1.68901865
S        5.75768500       5.91504700       7.93590700      -0.29639145      -0.52474092       0.61505856
S        1.48755000       8.81233900       7.62747100      -0.68331833       1.08134211      -0.49450087
S        0.30761100       5.92075800       6.27812600      -0.09172719       0.76013607      -1.18815998
P        5.02859900       1.86336300       6.62595600       0.06416216      -1.58081346      -1.14280821
P        1.62455000       1.99468700       7.11177700       0.05935173      -0.85125892      -0.35658843
S        0.56305200       2.98516300       5.41024700       0.65633789       0.01680024      -1.21767030
S        1.37022200       0.43050500       8.20292800       0.34991129      -1.25058582      -0.41274918
S        5.66430600       3.65613000       7.78223200       0.70960067      -0.43398945      -0.45331805
S        3.22982600       2.04040900       5.62010100      -0.46951404      -0.85200788      -1.34652381
S        1.13011600       3.75299500       8.21076100       0.13241076      -0.61332225       0.32478560
S        5.17925200       0.09492000       7.45336400      -0.57918018      -1.71573602       0.00369524
S        5.76435100       1.80747100       4.43584800      -0.08398641      -0.28105348       0.33728564
P        9.82180800       5.56457100       5.42613800       0.58144352      -0.77336611       0.31126531
P       10.42474000       8.13754100       8.12403700      -0.41576238       0.60850901       0.71079638
S       11.42567200       9.86330300       7.88137900       0.14842838       0.47517894       0.29423997
S        8.52418300       8.50289500       8.79652200       0.75107467       0.50447022       0.19386374
S       10.76887100       4.13442900       6.56861600      -1.09389616       1.68696302      -2.73485008
S       10.53942500       7.51170300       6.00901100      -0.21171486       0.59299858      -1.43047514
S       11.20776800       6.87729700       9.60722500      -1.21530609       1.05388686       0.77113134
S        7.89244400       5.60044000       5.59964400      -0.31680222       0.94854324      -0.80067972
S       10.44803000       5.47104200       3.45659000      -0.35832682       0.63567979      -1.33096217
P        4.42261500       1.30774300      12.54648900       0.56267374      -0.46813650       0.87401216
P        2.14209400       2.97985200      10.43035200      -1.32116913       0.18954213      -0.70806815
S        3.44149900       3.66504300       8.56123400       0.56377524      -2.51974124      -1.05911205
S        0.39591300       2.10133800      10.70926700      -0.67698157      -0.37249682       0.36193146
S        4.91556900       2.49277100       0.23728500       0.48948268       0.95181761       1.39106970
S        3.99704700       2.09778800      10.72718100       0.07069027      -0.50847321       0.83267452
S        2.67004500       4.72539200      11.57449300      -0.93730706      -0.38792573       0.33943606
S        3.13872100      13.34934400      13.12788600      -1.23622529      -0.30057578       1.49523607
S        6.98792700       0.58938300      12.03904000       0.30203291      -0.76523058      -1.13301463
P        1.40189900      11.22949600      11.84428600      -0.70277892       1.76456107       0.69803070
P        5.16270900      11.07679500      10.99407600       0.93453296       0.54738662       1.58978689
S        6.13458500      10.73892300       9.21805600       0.43163535       0.57569790      -0.46838072
S        5.17477300      13.13666600      11.02990600       2.08245291       0.62882339      -0.42707224
S        1.70266300      10.31846400      13.59649100      -0.09574372       1.22012056       0.55252509
S        3.12707300      11.01811900      10.38630600      -0.39068839       0.90254783      -0.05103063
S        5.96870300      10.68252200      13.02065800       0.33833806       1.60218644      -0.44646037
S        1.22600000      13.30147900      12.09641400      -0.03729158      -0.79936614      -0.11094423
S       13.48039000      10.62569200      10.59646800      -0.29173547       0.34865926      -0.36329857
P        1.42001800       6.38842200      12.03070900       0.44092121       0.86884203      -0.03238002
P        5.16508700       7.28601500      10.74798800       0.64545430      -0.04634443       0.46285132
S        5.50310900       7.98880500       8.91637400       1.57087692       1.43114627      -0.10752654
S        5.11773600       8.58542800      12.28736500       0.99449368       0.77532107       0.06417904
S        2.47214600       4.09375900      13.74188600      -0.86488215       0.14519586       1.61857187
S        3.13070100       7.25549200      10.40790900      -0.14242829      -0.72236479      -0.52256746
S        6.21502100       5.70947000      11.69138000       1.52572298      -0.39336400       0.92405738
S        1.54204700       7.60512100      13.60823200      -0.13717242       0.32660929       1.11999708
S       13.16283400       6.00068300      11.21662700      -2.24248451       0.10548001       2.33456473
P       11.77881200       1.64843700       6.73852300      -0.34048258      -1.21998907      -1.10452847
P        8.36138400       2.55993500       7.20375200      -0.05776041      -0.37696820      -0.56388379
S        7.55819200       2.80182600       5.15812800      -0.23165031      -0.64777169      -1.51312395
S        8.07252900       1.00178300       8.46177900       1.06597286      -0.46860545       0.27803605
S       12.53860300       3.44759100       7.86076600       0.89533373      -1.38661008       1.60890034
S        9.91209500       1.77356100       5.70878300      -0.20863177      -1.78822440       0.30746332
S        8.53451100       4.30373000       8.26298500       0.24325195      -0.75336467       1.32131242
S       11.72110700       0.20973400       8.08007200      -0.38125596      -1.17739096       0.61495798
S       12.86583400       1.26822800       4.69953100      -0.33977980       0.04728390      -0.37394845