2/geom.data (written by ASE) 

400 	 atoms 
3  atom types
0.0      21.518678619634439  xlo xhi
0.0      21.525348145239448  ylo yhi
0.0      21.931303149248102  zlo zhi


Masses 

1            6.94000000    # Li_atom 
2           30.97376199    # P_atom 
3           32.06499999    # S_atom 

Atoms 

     1   0   2   0.0        8.31463502524932      6.2996203823468511      10.856948880909718
     2   0   3   0.0      8.1022945002923876      8.2094332361278894      10.103843730392779
     3   0   3   0.0      8.8367561916190454      4.6565573419776323       9.798740937495797
     4   0   3   0.0      9.7498556797706435      6.3064891706991792       12.30754198398721
     5   0   3   0.0      6.3363161663685057      5.8581753121175346      11.220483212410462
     6   0   2   0.0      13.479288343624876      15.049676632810822      6.5360000572066657
     7   0   3   0.0      13.011766527253323       14.74066790270464      4.5235943812257515
     8   0   3   0.0      13.679461318374486      13.094240372961876      7.3569432544629709
     9   0   3   0.0      15.054674887176587      16.354908018284039      6.6219232699706305
    10   0   3   0.0      11.800683580277115      15.963231250375932      7.2348188890023435
    11   0   2   0.0      13.446054191511431      6.4837717141401949      2.0757819371925978
    12   0   3   0.0       14.08622634256753      4.8437972615456832     0.88724220235296147
    13   0   3   0.0      11.453933247811596      6.9490657242001808      1.7981275996057902
    14   0   3   0.0      13.497162453980685      5.5849244162329983      3.9154440142942795
    15   0   3   0.0      14.565063362652243      8.1387062517648889      1.9103249909601492
    16   0   2   0.0      8.1050165122998834      2.1147866389083014      15.342672143306551
    17   0   3   0.0      8.0707743834370778      2.7936714900925246      13.226023936067346
    18   0   3   0.0      7.4037675826998299     0.27495236516179933       15.38251382155183
    19   0   3   0.0      10.038069690012518      2.0032768653418858      15.888339527418204
    20   0   3   0.0      6.7605017699687542      2.9684344570457646       16.77290890361401
    21   0   2   0.0      8.0613514109846545      19.410790541743275      11.170081687128398
    22   0   3   0.0      8.8381842074159103      18.453081454586098      9.4057878234512415
    23   0   3   0.0      6.0630262656156821      18.866545071762474      11.238283195122749
    24   0   3   0.0      9.1160194158653951      18.379183181896913      12.561944645395496
    25   0   3   0.0      8.4819279521682081       21.44328269104356        11.1755799890391
    26   0   2   0.0      8.1202020092860447      19.282715969174717      1.9728086462920265
    27   0   3   0.0      9.4712823173988205      20.486586175696377      1.0480093312828689
    28   0   3   0.0      7.4266391587418497      17.713085770911327     0.93491970450878648
    29   0   3   0.0      9.1733762358476341      18.595747675924823      3.5902274163983177
    30   0   3   0.0      6.4323103883352895      20.462074322267881      2.3739170037600323
    31   0   2   0.0       18.82093842140317       15.26031508388126       19.70491579627711
    32   0   3   0.0      19.527002611939857      14.647767914954727      17.836766156659206
    33   0   3   0.0      16.896613109274799      15.760641611341844      19.531403798797641
    34   0   3   0.0      18.841090445412856      13.773736562576612      21.306889711284548
    35   0   3   0.0       20.10816782556579       16.53263650537351      20.464957014678486
    36   0   2   0.0      18.851751093462038      15.120849409634303      6.4498919519387936
    37   0   3   0.0      19.014998153834622      14.769741808059234      4.4578741059597293
    38   0   3   0.0      17.007870673353253      14.221771618656135      7.1388685114409745
    39   0   3   0.0      20.743266250871748      14.560138232970671      7.4182620268140065
    40   0   3   0.0       18.79266950261556      17.138273274757498      6.7865508020800256
    41   0   2   0.0      8.0833973547803275      19.397072415453454      6.6689871897076154
    42   0   3   0.0      9.1393816730432889      20.837926394484633       5.683777928992586
    43   0   3   0.0      5.9235927021356769      18.837171583492243      6.0575566564023298
    44   0   3   0.0      9.5817902625687363      18.014776351797316      6.3683160976482878
    45   0   3   0.0      7.6012639780428461      20.103842657133473       8.534367053943658
    46   0   2   0.0      18.742273231272861      15.657685782337381      11.076651482807652
    47   0   3   0.0      18.711158287722018      16.163205677654009      9.1745809647703869
    48   0   3   0.0      19.124962218701956      13.514368648214091      10.767435767792602
    49   0   3   0.0      20.395046041200779      16.140259129183356       11.96769023908945
    50   0   3   0.0      17.076551594164119      15.649816602788555      12.182120131600286
    51   0   2   0.0      8.1935842160419234      6.1425601492523905      15.325033206116782
    52   0   3   0.0      6.4149486553989519      5.0277466700514797      15.284027920099881
    53   0   3   0.0      7.8756472368770423       7.365879268757987      13.825959163100963
    54   0   3   0.0      7.7709921662420109      7.3060245317016674      16.782228011713244
    55   0   3   0.0      10.203542909598241      5.6716957222023048      15.378705480201049
    56   0   2   0.0      13.570398665690595      6.7465776668808326       6.729477800999204
    57   0   3   0.0      14.721842316994584      7.8222025285524817      5.3568283232298128
    58   0   3   0.0      11.590834046197811      7.0986783248116732      6.4681323209373645
    59   0   3   0.0      13.841011546735228      4.7329776136928228       6.828744118460949
    60   0   3   0.0      14.059465464826834      7.1706674036039573      8.7197297705659143
    61   0   2   0.0      18.758493988534813      6.1411282930882178      10.765813855117512
    62   0   3   0.0      16.723796419790876      5.7814176050171664      10.850042309670044
    63   0   3   0.0      19.595440652416741      6.1867262910272212      8.9303163958627376
    64   0   3   0.0      18.836693253044739      8.1106278451903684      11.482229833481693
    65   0   3   0.0      19.992397405654437      4.9358681711739676      11.852336032734032
    66   0   2   0.0      2.7297191198610227      6.5189654329548734      20.030264219478351
    67   0   3   0.0       3.318430385987734      6.3833992523324081       18.07749993124693
    68   0   3   0.0       3.033214945995089      4.7187326954483444      21.068844065700926
    69   0   3   0.0      4.0207928245707913      7.6905302714476784      21.052099347511973
    70   0   3   0.0     0.64319431683292994      6.6583558751661061      20.193917373579549
    71   0   2   0.0      2.4882950787547022      10.665901810872308      15.266450819496308
    72   0   3   0.0      3.4948322264108369      12.440982994159349      15.096515880971733
    73   0   3   0.0      1.2872645445863529      10.426941172594878      13.614013230325787
    74   0   3   0.0      4.2711359846093639      9.6303648862131084      15.182152136169679
    75   0   3   0.0      1.4040019581468222      10.427469095660184      16.909224299150004
    76   0   2   0.0      13.445348493104682      15.124262344016238       20.07983673972668
    77   0   3   0.0      11.576581746473872      14.866863831915262      20.971454643639369
    78   0   3   0.0      12.680543183244662      15.210951843834618      18.175474686396694
    79   0   3   0.0      14.477703557827589        16.7102730887569      20.662281276202037
    80   0   3   0.0      14.725393595901027      13.527839805939918      19.698522894251919
    81   0   2   0.0      7.8715171343349306      2.2168103053785284      6.8129697504901445
    82   0   3   0.0      6.3528711235274429      2.7630385964903144      5.4851076903021996
    83   0   3   0.0      9.4576573210982282      1.2502808463032538      5.7978177643760072
    84   0   3   0.0      9.4377611552928453      3.3682017616671431      7.4092997947071231
    85   0   3   0.0      7.1925504685592383      1.2542578925165238      8.3916578903199053
    86   0   2   0.0      18.764303349444855      10.910962459014897      15.319572026812027
    87   0   3   0.0      20.321648290903013      11.101520410662458      13.996131640274342
    88   0   3   0.0      16.794223235305271      10.290449138184295      14.712793290231245
    89   0   3   0.0      19.500304241018142      9.3927434735377222      16.361532660660004
    90   0   3   0.0      18.771194783751213      12.740904943520516       16.24339630558007
    91   0   2   0.0      13.282667132886653      2.1704538314794681      10.855012164791724
    92   0   3   0.0       11.82058134801588      3.6178119532347872      10.655338381879988
    93   0   3   0.0      15.203019632304816      2.6650568949715234      10.095024003722468
    94   0   3   0.0      14.476937237242865      2.4117200970499595      12.713162268219181
    95   0   3   0.0      12.465653726983797     0.24936303735450976       10.47153819058199
    96   0   2   0.0       18.78322524154509      6.2966969082723647      2.1863449760863962
    97   0   3   0.0      20.118791755389402      5.9434300876616062     0.64794250786604524
    98   0   3   0.0      16.868256192268195      5.9195892126030634      1.5499684109580143
    99   0   3   0.0      19.094139223740992      5.7849008755307718      4.2843529449274822
   100   0   3   0.0      18.630734528498746      8.3215740075677882      2.5399710786746943
   101   0   2   0.0      18.783534280162154       10.54613604958513      6.5795699794644964
   102   0   3   0.0      19.356817673549163      12.423354612695276      6.7485220507793429
   103   0   3   0.0      17.650238654265674       10.37426156606826        4.86088843118198
   104   0   3   0.0      20.695279772810608      9.5907814553801138      6.5949725078706187
   105   0   3   0.0      17.112570784318169      9.7873255556441041      7.6869269393554358
   106   0   2   0.0      18.751187838822762       10.72625677941871      19.952919324483425
   107   0   3   0.0      19.237408873288075      12.524231759725945      19.122556335076588
   108   0   3   0.0      19.523603969892992      9.5626801850376992      18.428334553425977
   109   0   3   0.0      19.989196483433258      10.014006200437615      21.405970712109099
   110   0   3   0.0      16.764624780442599      10.385386346850137      19.957656518114128
   111   0   2   0.0      8.0555077641414794      15.219838393335936      15.381985199239853
   112   0   3   0.0      7.3113937528196908      14.785071308356731      13.351762367660992
   113   0   3   0.0      9.0115534269356257      13.684372314874159      16.436405732219608
   114   0   3   0.0       9.555706101584942      16.517962384872575      15.066711399625458
   115   0   3   0.0      6.6628598984597902      16.167012964074178       16.54153834887887
   116   0   2   0.0      2.6439648730323988      6.2251278493742745      15.396302191244013
   117   0   3   0.0      4.3559792912695379      7.0215120183967539      14.755043989098921
   118   0   3   0.0      1.6504912513933836      5.5831117145746294      13.740844086211176
   119   0   3   0.0      2.9838318035177651      4.3692707915147944      16.312360137048639
   120   0   3   0.0      1.3419035751563522       7.572199946516994      16.041657254355695
   121   0   2   0.0      13.477063287703194      2.1127228132913127      15.529404882516756
   122   0   3   0.0      12.494445568326794      3.4003827933427293      16.707069589575653
   123   0   3   0.0      12.597735182295777       2.735376754727179      13.582503451162564
   124   0   3   0.0      15.471257131738433      2.5384914735262676        15.4008008361404
   125   0   3   0.0      13.093991795636793     0.12693872959219077      15.663980116149688
   126   0   2   0.0      2.6491055985295526      1.9004509680890964      11.029683278791897
   127   0   3   0.0      4.1348320474101188      2.5133619714215865      9.3507479586887641
   128   0   3   0.0       1.497683272656716     0.66168439306811744      9.9593082928105083
   129   0   3   0.0       3.970525246471043      1.3202267525312577      12.574635551060103
   130   0   3   0.0       1.436351798744802      3.2045527215376093      12.077623946392309
   131   0   2   0.0      2.6144645279048819      15.120835387039063      15.226674747494117
   132   0   3   0.0      3.1972829506563678      17.062134601904283      14.756224876754024
   133   0   3   0.0      1.3987232369380926      14.133868094427733      13.910918429973007
   134   0   3   0.0      4.5026765491617775      14.374505319502594      16.120290161870159
   135   0   3   0.0      1.2102034537350932      15.391811735101088      16.675612890336517
   136   0   2   0.0      18.677677289962872      10.254222246615148       10.85140243817308
   137   0   3   0.0      19.172629943034512      12.228921805526225       12.15068552852523
   138   0   3   0.0      19.785794069074495      10.515122748276079      9.2151487772699348
   139   0   3   0.0      20.251245470658887      9.7633296878048998      12.375525508573453
   140   0   3   0.0      16.475284923313282      10.387999186514115      10.970810008968241
   141   0   2   0.0      2.6089124385797238      19.600459694142586      19.702026306712629
   142   0   3   0.0      3.1214107357626606      20.649067724339844      17.948180232520993
   143   0   3   0.0       3.056305854770931      17.802099058643279      18.990009768034167
   144   0   3   0.0       3.986976889549783      19.784593594104496      21.208533885772212
   145   0   3   0.0     0.72904021061198776      19.639334885657185      20.310704663828279
   146   0   2   0.0        2.70341908683895      15.291896342308576      19.951976764027723
   147   0   3   0.0      1.1256457719832846       16.08367372522115      18.796038655392248
   148   0   3   0.0      2.7439209729054954      13.530939729771951      19.156242747380439
   149   0   3   0.0      4.7655003938404272      15.724234179413086      19.881955080503019
   150   0   3   0.0      1.9059777702157887      15.027173195529164      21.778440065763796
   151   0   2   0.0      8.3249814615608191      10.871283997252041      15.182949787755479
   152   0   3   0.0      10.193445454425465      11.285428482861192      14.461593603864895
   153   0   3   0.0      6.9948913131347119       10.06869698830984      13.840340879216567
   154   0   3   0.0      8.7577654228549839      9.6802935112718451      16.658874804013479
   155   0   3   0.0       6.704461055704023      12.456750497564189      15.720249175261618
   156   0   2   0.0      8.1236780092956575       10.87475754452284      10.833143458724372
   157   0   3   0.0       7.797465389892948      12.943900300089705      11.059734812312854
   158   0   3   0.0      8.0227925188834135      10.500528651940394      8.7947000612148152
   159   0   3   0.0       10.02366929391351      10.483515655913695      11.629937203669465
   160   0   3   0.0      6.0789354597272354      9.9046627429618859      11.593265448470259
   161   0   2   0.0      2.5007291925918964      6.6587593501166227       10.77025624051412
   162   0   3   0.0       3.357175721966561      8.1656067677521609      9.6122820991477642
   163   0   3   0.0      1.1582612877927534      5.5377398195239556      9.8404075306589238
   164   0   3   0.0      4.2834119697730113      5.6710980881656736      11.779368245867687
   165   0   3   0.0      1.6831070570643187      7.4733896831699411      12.351382123475318
   166   0   2   0.0      13.356689850267291      15.081188463833357      10.921130997667413
   167   0   3   0.0      14.331828778402771      15.280043093271956      9.2343163516800715
   168   0   3   0.0      12.568171414589626      13.045541162646327      11.055931170274622
   169   0   3   0.0      14.883425442803006      15.291375329410696      12.288464235998719
   170   0   3   0.0      11.791353425920894      16.405030454715106      11.026691414702437
   171   0   2   0.0      18.794837300801589      19.339499262334396      2.1030434065673886
   172   0   3   0.0      16.867107302143044      19.683040808272256      1.6126647597384969
   173   0   3   0.0      20.113819519071512      20.172099346871025      0.8714297391122322
   174   0   3   0.0      19.114720381023247      20.061772132686055      4.1086248447677907
   175   0   3   0.0      19.013117427430164      17.335276618630616      2.4311777997731472
   176   0   2   0.0      13.440522622653754      1.9107178430431908      6.4139080324117623
   177   0   3   0.0       14.04790980087264      3.2645684474355252      4.9161272421179971
   178   0   3   0.0      13.695111953675839     0.15105707364346649      5.3792537045789075
   179   0   3   0.0      14.659427617267932      1.8674880419175017      8.0906758444092706
   180   0   3   0.0      11.516887811377732      2.3291830686245851      6.9325788441375797
   181   0   2   0.0       8.066457578331196      14.904221801433863      6.6004785278706901
   182   0   3   0.0      9.1576955105856381      15.823738691370124       8.108582242994574
   183   0   3   0.0      8.6215064098638088      15.245354354460851      4.6036858078585858
   184   0   3   0.0      8.5834236271775719      12.928440273548775      6.9232357265954496
   185   0   3   0.0      6.0523410293406856      15.374880834631677      7.0103062999751788
   186   0   2   0.0      13.479817007890571      10.676790260937933      19.772921269076807
   187   0   3   0.0      14.555584616793031      11.177273198951038      17.919613056930377
   188   0   3   0.0      12.086438128113022      9.4150569564333146      18.981647587537868
   189   0   3   0.0      14.558618156676451      9.7127816760544583        21.1254097455543
   190   0   3   0.0      12.450005218491155      12.245305154586545      20.628958180633589
   191   0   2   0.0      13.547978398781504      15.098980495114093      15.383042807742118
   192   0   3   0.0      11.734349326208187      13.889631385336344      15.226257395053747
   193   0   3   0.0       13.53879952339083      16.449270077572749      13.828581380854272
   194   0   3   0.0      13.791505350973956      16.796675958447999       16.59762743706829
   195   0   3   0.0       15.12770520133196      13.663291131189126      15.447225086567871
   196   0   2   0.0      8.1846261851935846      6.2838673075557496      19.830674152164626
   197   0   3   0.0      9.2451663306326104      5.3481404314762528      18.517816364488766
   198   0   3   0.0      6.1380425551762396       6.586715248914996       19.25423550994492
   199   0   3   0.0      8.0463399254239114      5.4413716832558157      21.666200745427744
   200   0   3   0.0      9.3370239330696592      7.9200887890586245      20.237969162288262
   201   0   2   0.0      18.839215602015081      2.0443683875295156      2.1900547993817727
   202   0   3   0.0      16.863563296511391      2.6720722140265525      2.3317910630909773
   203   0   3   0.0      19.201616406492089      1.5916291163857976     0.29112092285427554
   204   0   3   0.0      20.085555469507018      3.5860423185170629      2.7086149065408711
   205   0   3   0.0       19.15048993048061     0.60499909823004949      3.6836149001028264
   206   0   2   0.0      18.694772494853808      6.2757861819197274      15.623270711758277
   207   0   3   0.0      19.055338858007143      5.9552618411727156      13.622587409360253
   208   0   3   0.0      16.678252953306178      7.0239958061927288      15.580157584490557
   209   0   3   0.0      19.218526431842765      4.7105585659110174      16.710902771236114
   210   0   3   0.0      20.342287840173739      7.6191036114848423      15.940152296269261
   211   0   2   0.0      18.770399122970016      10.972384490696319      2.1393942881201209
   212   0   3   0.0       19.55778938651828      12.399973624051844     0.95726403747394517
   213   0   3   0.0      20.198141388559147      9.1687389985646952      1.4914839946195257
   214   0   3   0.0      19.575883720232966      11.512723682245806      3.9714369575370432
   215   0   3   0.0      16.748917893047448      10.743492415051701      2.0047584121143025
   216   0   2   0.0      8.0824219169548357      10.872152386548388      19.993842245721527
   217   0   3   0.0      9.8617770594703309      10.769812093183504      18.962211030458157
   218   0   3   0.0      6.3331821980574077      10.190195394836188      18.666391181655822
   219   0   3   0.0      8.1578466789728541      9.9953909339610263      21.864564605599316
   220   0   3   0.0      7.5942111360802667      12.895165150361755      20.096502232931954
   221   0   2   0.0      2.5757165675657787       10.98302228043546        19.8438286955184
   222   0   3   0.0      4.5230461238899631       11.72947424130952       19.08520365743059
   223   0   3   0.0      2.8423971144495312      9.2008621904467329      18.913200799808642
   224   0   3   0.0      3.0427067046639835       10.76107641473142      21.881773530935199
   225   0   3   0.0     0.68130012874533197      11.567795419355747      19.480313072426192
   226   0   2   0.0      2.7091092537568349       15.09940477919992      10.805483075488834
   227   0   3   0.0      3.7898411967306194      15.830218920546608      9.2400797818478964
   228   0   3   0.0     0.75305837809065157       15.08549723771781      10.611233158278477
   229   0   3   0.0      3.6147922031360831      13.039868062033165      11.098086603345619
   230   0   3   0.0      3.3438548396336212      16.142198503149331      12.444060019732808
   231   0   2   0.0      8.0336904163250384      2.2665615775812911      1.9022797909942999
   232   0   3   0.0      9.8081990868733939       1.674937904386971       1.006668124796378
   233   0   3   0.0      6.3748875459408385      1.2541284842034019      1.3362764680189694
   234   0   3   0.0      8.5155672622326364      1.8282602916211115      3.8521886671490266
   235   0   3   0.0      7.7156670892878143      4.3208590257043733      1.9724483722377255
   236   0   2   0.0      2.5896040938236311       1.892940760749747      19.817810218634651
   237   0   3   0.0      3.2068690135832476      3.8193465253926604      19.192566550601111
   238   0   3   0.0      3.5286466981803191      1.2432538237476196      18.009304202542697
   239   0   3   0.0      3.5267373590369666      1.4132660163705659      21.474526277119125
   240   0   3   0.0     0.60861152898818704      2.0070924438680962      19.743386998109163
   241   0   2   0.0      7.9435905127625857      6.6460541564122284      6.3839790715522717
   242   0   3   0.0       6.565646562330735      7.9743071042193101      5.7084418565124793
   243   0   3   0.0      9.5311757539117821      6.4225564639720076      5.0501669783083649
   244   0   3   0.0      8.6215572322817184      7.2923869380969339      8.1524605199269118
   245   0   3   0.0      6.8661519892265526      4.9328470632788273       6.584064833412457
   246   0   2   0.0      2.5618820170107917      19.364313586085014      2.2711100762645757
   247   0   3   0.0      4.4783417224493371      19.184022184873143      1.4217367423847296
   248   0   3   0.0      1.4151240616115461       17.80398408705528      1.8310463740358773
   249   0   3   0.0      3.1048128902366372      19.227101021355551      4.3035661953954953
   250   0   3   0.0      1.8290720474272659      21.206340380420645      1.8961635903377967
   251   0   1   0.0      16.657758134841508      14.605846865936995      1.5499955432487464
   252   0   1   0.0       11.59895842199905      11.114443885534195      16.552010276839237
   253   0   1   0.0      5.0914617740306181      11.348239490760086      9.9928557443674606
   254   0   1   0.0      12.232074467999452      4.9443692176176253      8.5987311287301189
   255   0   1   0.0       6.493371056891629      3.2350343017343239      19.899974341065313
   256   0   1   0.0      10.940423184251795      17.885036814062104      8.4467795991690622
   257   0   1   0.0        19.3722244773871      8.3766233714173506      8.1634916690076622
   258   0   1   0.0      1.5503341358321387       8.777198361255012      21.162843649029657
   259   0   1   0.0      14.661764090824475      7.7060428196978998      18.289433727399089
   260   0   1   0.0      17.053203017192409      11.055233368674036      17.359157220468241
   261   0   1   0.0       8.643670905772435      21.228092448682041      17.968840806104382
   262   0   1   0.0      5.2385392306970555      17.870929641593797       8.713004326647475
   263   0   1   0.0      3.6728649346473587      4.0723178827645095      14.063144328539845
   264   0   1   0.0      3.8002934332562335       16.23239404162161      17.449783176562065
   265   0   1   0.0      12.168327247224653      7.8981842526283268      4.1073468562270419
   266   0   1   0.0      17.008522360180905      4.4904671141973944      7.9497096271659622
   267   0   1   0.0      16.397937102571589      8.1844635929975365      12.926877615572144
   268   0   1   0.0      6.2841705188853112      10.049436546522951      16.293924850733841
   269   0   1   0.0      15.648238124609948      13.267627052902959       9.911087479452922
   270   0   1   0.0      5.0885218194074433       6.085721453921626      8.4837401610770016
   271   0   1   0.0      5.2809507579102704      16.788231777298257      3.4082386662478577
   272   0   1   0.0      18.489673085308254      19.546447516087539      15.641093807852558
   273   0   1   0.0      7.7998420394582535      12.389005875186934      13.433654918899984
   274   0   1   0.0      11.566500707653613       1.722060213286027      3.7064112706319534
   275   0   1   0.0       11.71052927656312      10.716306598194704      4.2540050188202727
   276   0   1   0.0      14.176757836443588      5.3679837593606115      14.835675828101822
   277   0   1   0.0      8.0568707054451512      16.046842221129594      10.694481708328553
   278   0   1   0.0      17.851041205663581      12.594294221999631      13.968390980754641
   279   0   1   0.0      18.363671002890094      4.0817294289817383     0.76927420338877739
   280   0   1   0.0      12.921685701531613      20.783776797277831       8.024823946032571
   281   0   1   0.0      17.121103048376671      3.7172419685372939       13.10833257676906
   282   0   1   0.0      10.444946124602046       4.075209815715116      13.294193891969677
   283   0   1   0.0      2.4563287669797464      12.290741648653233      12.944256321333945
   284   0   1   0.0     0.61860137574844731      11.740355123336531      4.2962232995435263
   285   0   1   0.0      10.160056329879508      12.176974054967507      9.3126765880025051
   286   0   1   0.0      16.354735479227767      5.2109750620359874      4.8333063585867935
   287   0   1   0.0      5.1768967285150636      7.7739190753012677      12.406581654592177
   288   0   1   0.0     0.71264931647625018      4.6682382799181052      18.129322447691266
   289   0   1   0.0      17.051909638554495      17.014713045573245      4.5138959616947822
   290   0   1   0.0      4.5300166173108165      13.330403929567014      21.510921468744819
   291   0   1   0.0      13.321948281307199      19.297831482171098      4.0750656417520288
   292   0   1   0.0      11.177704645365337      15.956328246396323      13.374694203356318
   293   0   1   0.0      4.9798408302786843      9.8053276181201419      20.519263905490863
   294   0   1   0.0      10.998514724920131      7.9795297762952995      17.221516306994769
   295   0   1   0.0       6.703619417520815      17.545338155710247      13.773410384139632
   296   0   1   0.0       17.50902878502075      11.923300946163927      8.6650070711106757
   297   0   1   0.0      12.742933563614901      5.5540199185509964      21.015552851131677
   298   0   1   0.0      8.6788963751367483      4.1257562579368461      4.8148179209623869
   299   0   1   0.0     0.61103435330229705      13.006296446029001      17.172591919698853
   300   0   1   0.0      16.836813939890032      13.223594248373264      17.830678025694695
   301   0   1   0.0      16.189105136349287      13.243234252204896      4.2938193745727569
   302   0   1   0.0      5.4449366311890302      6.4095864334290296      16.895187347790632
   303   0   1   0.0      5.6525648801965804      3.2769252757021148      13.100781678647937
   304   0   1   0.0      9.0551124801472564      2.3094763997870071      10.871766117970695
   305   0   1   0.0       6.835467755713986      7.7870786614340544      21.427910048971562
   306   0   1   0.0      5.9812463400240077      13.707859759513541      18.153108873806381
   307   0   1   0.0     0.35194481316904075      2.9560771833747967       4.058940610954398
   308   0   1   0.0      13.384678705216844      7.7632011098189606      12.662718923428267
   309   0   1   0.0      17.068903811436016      17.049814839987185      15.519187382600663
   310   0   1   0.0      11.694315288066075        10.0810227012401      8.1660774099320594
   311   0   1   0.0      10.051977670773667      8.4665433261432952      14.712201589983708
   312   0   1   0.0      18.266681410702454      20.882728167113733      10.607204927195163
   313   0   1   0.0       17.38567389636394      7.0029335441305136      6.6422179572861193
   314   0   1   0.0      19.180257048435216      1.7137431359321222       8.124298553660438
   315   0   1   0.0      10.050420986311556      13.455409190079585      12.819606308360637
   316   0   1   0.0      16.506142671426662      7.8158862917483134      3.5448876452621523
   317   0   1   0.0      15.970280436659925      12.799666585437897      12.751095853314803
   318   0   1   0.0      1.0429423975903505      18.564252427831303      16.960260730185158
   319   0   1   0.0      6.2277221662593822      19.913402493554045      15.486268550115046