LAMMPS (15 Sep 2022)
  using 1 OpenMP thread(s) per MPI task
# /home/carsten/Documents/PhD/LPS/MD_GAP/polarise/MD_GAP_CS.in (written by LAMMPScs 2.1 on Mon Jun 17 10:42:15 2019)

# ------------------------------ INITIALIZATION -------------------------------
units      metal
dimension  3
boundary   p p p
atom_style full
newton     on off
# ----------------------------- ATOM DEFINITION -------------------------------
read_data geom.data
Reading data file ...
  orthogonal box = (0 0 0) to (21.518679 21.525348 21.931303)
  3 by 4 by 6 MPI processor grid
  reading atoms ...
  400 atoms
Finding 1-2 1-3 1-4 neighbors ...
  special bond factors lj:    0        0        0       
  special bond factors coul:  0        0        0       
     0 = max # of 1-2 neighbors
     0 = max # of 1-3 neighbors
     0 = max # of 1-4 neighbors
     1 = max # of special neighbors
  special bonds CPU = 0.003 seconds
  read_data CPU = 0.044 seconds
timer timeout 24:00:00 every 100
New timer settings: style=normal  mode=nosync  timeout=00:00:00
# ------------------------------ ATOM GROUPING --------------------------------
group Li_atoms type 1
150 atoms in group Li_atoms
group P_atoms type 2
50 atoms in group P_atoms
group S_atoms type 3
200 atoms in group S_atoms

neighbor 2.0 bin
comm_modify vel yes

# ------------------------- GAP Potential ---------------------------


pair_style quip
pair_coeff      * * /u/thuss/templates/gaps/naps/gp_2b_soap.xml "IP GAP label=GAP_2023_2_8_0_13_56_52_159" 11 15 16

reset_timestep 0
# ------------------------ DEFINE COMPUTES --------------------------

compute thermo_press_lmp all pressure thermo_temp
compute ke_tech all ke
compute epot_tech all pe
compute vacf_p P_atoms vacf
compute vacf_s S_atoms vacf
compute msd_li Li_atoms msd com yes
variable etotal_tech equal c_ke_tech+c_epot_tech
variable temp_phys equal c_thermo_temp
variable ke_phys equal ke
variable etot_phys equal etotal
variable vol_v equal vol
variable T equal "500"

# ---------------------------------- TIMESTEP ------------------------------------
timestep 0.002

# ------------------------ RUNS ---------------------------
dump equiatoms all atom 500 geom.dump
dump_modify equiatoms scale no

thermo 100 # every 0.1
thermo_style custom step etotal pe ke temp press

fix therm_equ all nvt temp 300 600 1.0
run 50000
Neighbor list info ...
  update: every = 1 steps, delay = 0 steps, check = yes
  max neighbors/atom: 2000, page size: 100000
  master list distance cutoff = 8
  ghost atom cutoff = 8
  binsize = 4, bins = 6 6 6
  1 neighbor lists, perpetual/occasional/extra = 1 0 0
  (1) pair quip, perpetual
      attributes: full, newton on
      pair build: full/bin
      stencil: full/bin/3d
      bin: standard
Per MPI rank memory allocation (min/avg/max) = 7.038 | 8.008 | 8.036 Mbytes
   Step         TotEng         PotEng         KinEng          Temp          Press     
         0  -3305351.6     -3305351.6      0              0              93763.353    
       100  -3305369.7     -3305493.5      123.79346      2400.2704      24626.534    
       200  -3305395.6     -3305502.7      107.14381      2077.445       14933.172    
       300  -3305421       -3305521.5      100.48479      1948.3312      11334.46     
       400  -3305444.8     -3305536.4      91.641496      1776.8658      8614.6475    
       500  -3305466.2     -3305539.6      73.372889      1422.6501      5573.013     
       600  -3305484.8     -3305552.3      67.498124      1308.7424      5987.1168    
       700  -3305501.2     -3305562        60.780095      1178.4844      4268.1729    
       800  -3305515.2     -3305568.6      53.444138      1036.2452     -74.740485    
       900  -3305527.4     -3305577.2      49.88101       967.15862      3418.559     
      1000  -3305538       -3305582.6      44.563335      864.05255      2109.2674    
      1100  -3305547.5     -3305589.3      41.77934       810.07277      1211.439     
      1200  -3305555.7     -3305592.1      36.469554      707.11966     -1656.5984    
      1300  -3305563       -3305596.8      33.838746      656.11011     -3636.7418    
      1400  -3305569.3     -3305601.6      32.248752      625.28122     -4458.6544    
      1500  -3305574.9     -3305603.8      28.93623       561.05367     -3138.61      
      1600  -3305579.8     -3305609.1      29.318136      568.45857     -4481.989     
      1700  -3305584.2     -3305609.1      24.850021      481.82489     -3398.8617    
      1800  -3305588.1     -3305612.1      23.953138      464.43494     -2921.7807    
      1900  -3305591.5     -3305615.2      23.684643      459.22901     -3635.2065    
      2000  -3305594.7     -3305616.1      21.363286      414.21947     -3785.4219    
      2100  -3305597.5     -3305617.6      20.073669      389.21468     -5573.8215    
      2200  -3305600       -3305619        19.032715      369.0313      -5106.0092    
      2300  -3305602.1     -3305620.2      18.017861      349.35399     -6890.3885    
      2400  -3305604       -3305621.4      17.421411      337.78923     -4945.8653    
      2500  -3305605.6     -3305621.7      16.048287      311.16529     -5359.2915    
      2600  -3305607.1     -3305624.2      17.033912      330.27589     -8559.5086    
      2700  -3305608.4     -3305624.5      16.081236      311.80414     -4836.389     
      2800  -3305609.6     -3305625.6      16.006385      310.35284     -6430.5155    
      2900  -3305610.6     -3305625.8      15.204956      294.81367     -7593.2482    
      3000  -3305611.4     -3305626.3      14.926127      289.40737     -6096.9563    
      3100  -3305612.1     -3305626.5      14.370372      278.63167     -6927.3584    
      3200  -3305612.6     -3305627        14.449363      280.16324     -7247.9904    
      3300  -3305613       -3305627.1      14.166893      274.68636     -6822.3941    
      3400  -3305613.1     -3305628.2      15.035047      291.51926     -8496.529     
      3500  -3305613.2     -3305626.9      13.749853      266.60022     -7469.352     
      3600  -3305613       -3305628.5      15.49553       300.44772     -8448.7614    
      3700  -3305612.8     -3305627.4      14.605778      283.19603     -7139.1455    
      3800  -3305612.3     -3305627.4      15.042659      291.66685     -6684.1212    
      3900  -3305611.8     -3305626.9      15.142262      293.59808     -4541.2263    
      4000  -3305611.1     -3305626        14.854322      288.01512     -4372.6009    
      4100  -3305610.4     -3305625.7      15.285162      296.36881     -6325.4201    
      4200  -3305609.6     -3305626.2      16.631915      322.48145     -4453.2646    
      4300  -3305608.7     -3305626.1      17.415531      337.67522     -7252.4504    
      4400  -3305607.8     -3305625.1      17.246237      334.39273     -7737.7332    
      4500  -3305607       -3305624.1      17.103938      331.63365     -5656.4851    
      4600  -3305606.3     -3305625.1      18.816808      364.84503     -5590.8289    
      4700  -3305605.7     -3305623.2      17.49344       339.18582     -6855.7275    
      4800  -3305605.2     -3305623.9      18.672433      362.04569     -6981.4313    
      4900  -3305604.9     -3305625        20.088405      389.50042     -8232.3575    
      5000  -3305604.7     -3305624        19.302307      374.2585      -5474.7297    
      5100  -3305604.8     -3305622.7      17.984384      348.7049      -4358.7424    
      5200  -3305604.9     -3305623.7      18.769066      363.91934     -6943.6485    
      5300  -3305605.3     -3305623.8      18.533568      359.35319     -6253.7766    
      5400  -3305605.7     -3305624.2      18.461381      357.95353     -6231.4954    
      5500  -3305606.3     -3305625.3      18.994009      368.28082     -4837.0865    
      5600  -3305607       -3305624.7      17.713952      343.46139     -6739.1145    
      5700  -3305607.7     -3305625.3      17.62779       341.79078     -5857.2125    
      5800  -3305608.4     -3305625.6      17.166532      332.84729     -7349.8846    
      5900  -3305609.1     -3305626.5      17.461208      338.56085     -7247.3744    
      6000  -3305609.7     -3305625.8      16.124134      312.63592     -6534.967     
      6100  -3305610.2     -3305626.1      15.838929      307.10597     -6595.0215    
      6200  -3305610.7     -3305626.7      15.999505      310.21945     -5884.7452    
      6300  -3305611       -3305627.4      16.423197      318.43453     -4425.7113    
      6400  -3305611.2     -3305627.5      16.221855      314.53066     -6825.2243    
      6500  -3305611.4     -3305626.9      15.523697      300.99385     -6943.6851    
      6600  -3305611.4     -3305627.5      16.092105      312.0149      -6620.7474    
      6700  -3305611.4     -3305627.3      15.931872      308.90808     -6093.1077    
      6800  -3305611.2     -3305626.5      15.331347      297.26432     -6200.4211    
      6900  -3305610.9     -3305627.1      16.250078      315.07788     -7744.4146    
      7000  -3305610.4     -3305626.2      15.739318      305.1746      -5453.2243    
      7100  -3305609.9     -3305626.7      16.84197       326.55425     -5829.513     
      7200  -3305609.3     -3305626.5      17.171072      332.93532     -6979.4991    
      7300  -3305608.6     -3305626.8      18.151125      351.93787     -5174.5314    
      7400  -3305607.9     -3305624.5      16.619679      322.24418     -3892.5321    
      7500  -3305607.2     -3305625.9      18.685946      362.30769     -5191.6419    
      7600  -3305606.6     -3305625.5      18.898633      366.43155     -4800.0639    
      7700  -3305606       -3305625.2      19.195418      372.18602     -5942.1125    
      7800  -3305605.4     -3305624.8      19.308325      374.37519     -3851.273     
      7900  -3305605       -3305623.6      18.537602      359.4314      -3429.8735    
      8000  -3305604.7     -3305624        19.280972      373.84483     -5554.7838    
      8100  -3305604.5     -3305625        20.487115      397.23113     -3595.6624    
      8200  -3305604.4     -3305624.6      20.117922      390.07272     -5043.4092    
      8300  -3305604.5     -3305623.9      19.406492      376.27858     -2529.8133    
      8400  -3305604.7     -3305624.6      19.915337      386.14475     -4471.5486    
      8500  -3305605.1     -3305624.5      19.453813      377.19611     -5851.5977    
      8600  -3305605.5     -3305625.1      19.649503      380.99039     -5793.3875    
      8700  -3305606       -3305624.8      18.781624      364.16283     -3827.2954    
      8800  -3305606.6     -3305625.6      19.05766       369.51498     -7829.3824    
      8900  -3305607.2     -3305625.7      18.497433      358.65256     -3705.2952    
      9000  -3305607.7     -3305626.2      18.423965      357.22805     -4436.8552    
      9100  -3305608.3     -3305627.3      19.011992      368.6295      -7792.5388    
      9200  -3305608.8     -3305627.2      18.413355      357.02233     -5889.6771    
      9300  -3305609.3     -3305627.5      18.242915      353.71762     -6113.4352    
      9400  -3305609.7     -3305628.2      18.47679       358.25229     -6821.9354    
      9500  -3305610.1     -3305627.3      17.280162      335.0505      -4638.2836    
      9600  -3305610.3     -3305627.6      17.231662      334.11013     -7184.2129    
      9700  -3305610.5     -3305627.6      17.05867       330.75593     -6476.5731    
      9800  -3305610.6     -3305627.4      16.787738      325.50273     -7361.5488    
      9900  -3305610.6     -3305627.8      17.216059      333.80759     -4884.6656    
     10000  -3305610.5     -3305627.4      16.923983      328.14443     -7876.395     
     10100  -3305610.3     -3305627.7      17.386279      337.10805     -6267.9347    
     10200  -3305610       -3305629.3      19.33323       374.85808     -4751.9691    
     10300  -3305609.5     -3305627.2      17.604178      341.33295     -4969.9704    
     10400  -3305609.1     -3305627        17.981071      348.64066     -6618.1925    
     10500  -3305608.5     -3305626.5      17.966219      348.35267     -5450.9604    
     10600  -3305608       -3305626.8      18.850943      365.50687     -5484.4359    
     10700  -3305607.5     -3305626.8      19.326052      374.7189      -4726.368     
     10800  -3305607.1     -3305625.1      18.076762      350.49604     -6527.6636    
     10900  -3305606.7     -3305627.1      20.403234      395.60472     -6700.6427    
     11000  -3305606.4     -3305625.7      19.329037      374.77679     -4169.2127    
     11100  -3305606.1     -3305626.2      20.013946      388.05671     -4804.6864    
     11200  -3305606       -3305626.1      20.092147      389.57297     -5702.2599    
     11300  -3305606       -3305626.1      20.083967      389.41436     -4981.0073    
     11400  -3305606.1     -3305626.9      20.813826      403.56583     -5401.2213    
     11500  -3305606.2     -3305626        19.818063      384.25866     -5529.9747    
     11600  -3305606.4     -3305626.2      19.711126      382.18524     -4161.8587    
     11700  -3305606.7     -3305626.1      19.320864      374.61832     -4844.5413    
     11800  -3305607       -3305625.9      18.852127      365.52983     -4808.4554    
     11900  -3305607.4     -3305626.7      19.3267        374.73147     -8148.6261    
     12000  -3305607.7     -3305627        19.324741      374.69349     -5246.1442    
     12100  -3305608       -3305627        18.951419      367.45503     -4593.6942    
     12200  -3305608.3     -3305627.9      19.509448      378.27483     -5625.9904    
     12300  -3305608.6     -3305627.7      19.08043       369.95646     -5709.2762    
     12400  -3305608.9     -3305627.5      18.63612       361.34159     -4606.98      
     12500  -3305609       -3305628.2      19.204781      372.36754     -7328.8899    
     12600  -3305609.1     -3305627.6      18.438318      357.50636     -4656.7432    
     12700  -3305609.2     -3305628.2      19.005115      368.49616     -4593.25      
     12800  -3305609.2     -3305627.5      18.263833      354.1232      -4984.6396    
     12900  -3305609.1     -3305628        18.89509       366.36284     -5427.0484    
     13000  -3305609       -3305628        18.997354      368.34568     -5038.1331    
     13100  -3305608.8     -3305627.5      18.713418      362.84036     -6466.7688    
     13200  -3305608.5     -3305626.3      17.757552      344.30676     -4708.7025    
     13300  -3305608.2     -3305627        18.780524      364.14149     -5654.1649    
     13400  -3305607.8     -3305627.1      19.276519      373.75851     -6071.8402    
     13500  -3305607.3     -3305625.9      18.521952      359.12795     -6880.0773    
     13600  -3305606.8     -3305627.6      20.761359      402.54853     -5613.735     
     13700  -3305606.4     -3305626.8      20.41          395.73591     -6157.1014    
     13800  -3305605.9     -3305627.4      21.443377      415.7724      -5671.877     
     13900  -3305605.5     -3305626.8      21.249476      412.01279     -3535.0945    
     14000  -3305605.2     -3305625        19.796069      383.83221     -4448.7868    
     14100  -3305604.9     -3305626.1      21.130769      409.71114     -3375.9292    
     14200  -3305604.7     -3305625.4      20.703257      401.42198     -6140.8737    
     14300  -3305604.5     -3305623.7      19.112783      370.58378     -4730.0879    
     14400  -3305604.4     -3305625.1      20.665467      400.68925     -3065.4971    
     14500  -3305604.3     -3305624.1      19.781527      383.55025     -8882.1104    
     14600  -3305604.3     -3305625.4      21.099786      409.1104      -2891.4982    
     14700  -3305604.3     -3305625.8      21.476916      416.4227      -5265.2982    
     14800  -3305604.3     -3305625.2      20.812339      403.53699     -3600.6199    
     14900  -3305604.5     -3305624.9      20.389985      395.34785     -2170.0421    
     15000  -3305604.7     -3305625.2      20.539107      398.23922     -5355.6717    
     15100  -3305604.9     -3305626.1      21.198438      411.0232      -4061.523     
     15200  -3305605.3     -3305625.5      20.276452      393.14652     -4464.1543    
     15300  -3305605.6     -3305626.9      21.296882      412.93195     -4914.0905    
     15400  -3305606       -3305627        20.998412      407.14483     -3845.1816    
     15500  -3305606.4     -3305626.4      19.940856      386.63953     -5993.8857    
     15600  -3305606.8     -3305627.6      20.832479      403.92749     -5098.6591    
     15700  -3305607.1     -3305627.1      19.935388      386.53352     -5521.1967    
     15800  -3305607.4     -3305627.5      20.102703      389.77765     -2261.6069    
     15900  -3305607.7     -3305628.1      20.393843      395.42264     -5446.5547    
     16000  -3305607.8     -3305626.8      19.02823       368.94434     -5043.2191    
     16100  -3305607.9     -3305626.8      18.890897      366.28155     -5655.5354    
     16200  -3305607.9     -3305626.9      19.017951      368.74503     -4162.8617    
     16300  -3305607.8     -3305628        20.156345      390.81772     -5317.6371    
     16400  -3305607.7     -3305626.9      19.201538      372.30466     -5885.2792    
     16500  -3305607.4     -3305626.5      19.093592      370.21166     -4580.8446    
     16600  -3305607.1     -3305627.4      20.255921      392.74843     -7117.7686    
     16700  -3305606.7     -3305627.3      20.564609      398.73369     -4491.7916    
     16800  -3305606.3     -3305626.2      19.906229      385.96815     -6357.6959    
     16900  -3305605.9     -3305626.5      20.63293       400.05838     -4121.3942    
     17000  -3305605.4     -3305625.8      20.337718      394.33442     -5039.8646    
     17100  -3305605       -3305626.5      21.504569      416.95887     -3649.8886    
     17200  -3305604.6     -3305626.1      21.558873      418.01178     -2216.8686    
     17300  -3305604.2     -3305626.6      22.364253      433.62754     -3418.2744    
     17400  -3305603.9     -3305625.4      21.464609      416.18407     -3691.3284    
     17500  -3305603.7     -3305625.4      21.626361      419.32033     -2800.0222    
     17600  -3305603.6     -3305625.9      22.315042      432.67338     -4489.3122    
     17700  -3305603.6     -3305624.4      20.835413      403.98438     -5663.7525    
     17800  -3305603.6     -3305626.7      23.10334       447.95794     -1960.0531    
     17900  -3305603.7     -3305625.3      21.629038      419.37224     -4864.6403    
     18000  -3305603.8     -3305625.5      21.683213      420.42265     -3008.1151    
     18100  -3305604       -3305625.8      21.807013      422.82304     -6645.7425    
     18200  -3305604.2     -3305625.4      21.215792      411.35968     -3327.3052    
     18300  -3305604.4     -3305625.7      21.340038      413.76872     -2283.1474    
     18400  -3305604.6     -3305624.4      19.821585      384.32696     -7201.1435    
     18500  -3305604.8     -3305625        20.192271      391.5143      -1618.9453    
     18600  -3305605       -3305626.4      21.409007      415.10598     -3289.9554    
     18700  -3305605.2     -3305626.9      21.702231      420.7914      -3943.949     
     18800  -3305605.4     -3305626.6      21.201071      411.07424     -5529.0566    
     18900  -3305605.5     -3305627.4      21.878042      424.20024     -2790.842     
     19000  -3305605.6     -3305626.6      21.018861      407.54132     -5004.0516    
     19100  -3305605.7     -3305626.7      20.991667      407.01405     -2659.3557    
     19200  -3305605.7     -3305626.1      20.384573      395.2429      -4294.8797    
     19300  -3305605.7     -3305626        20.282969      393.27287     -4503.8366    
     19400  -3305605.7     -3305626.4      20.751276      402.35303     -3836.8149    
     19500  -3305605.5     -3305626.3      20.753209      402.39051     -1994.893     
     19600  -3305605.4     -3305626.5      21.157644      410.23223     -5511.9288    
     19700  -3305605.2     -3305626.1      20.915727      405.54161     -5083.6665    
     19800  -3305604.9     -3305626        21.051991      408.18368     -3711.7061    
     19900  -3305604.6     -3305626.4      21.767432      422.0556      -4900.2724    
     20000  -3305604.3     -3305625.7      21.375737      414.4609      -3601.0285    
     20100  -3305604       -3305625.6      21.612809      419.05757     -4988.6252    
     20200  -3305603.6     -3305625.4      21.814116      422.96076     -5173.6266    
     20300  -3305603.3     -3305625        21.706236      420.86904     -3089.027     
     20400  -3305603       -3305623.8      20.7531        402.38839     -5697.7351    
     20500  -3305602.7     -3305625.6      22.874516      443.5212      -3303.6154    
     20600  -3305602.4     -3305625.3      22.819277      442.45014     -3696.8708    
     20700  -3305602.2     -3305624.4      22.191225      430.27265     -8119.9107    
     20800  -3305602       -3305623        21.061729      408.3725       204.46602    
     20900  -3305601.8     -3305624.9      23.066593      447.24543     -4668.4584    
     21000  -3305601.7     -3305624.8      23.087065      447.64238     -4862.6956    
     21100  -3305601.7     -3305623.7      22.087127      428.25426     -957.61093    
     21200  -3305601.7     -3305624.9      23.240522      450.6178      -4382.5741    
     21300  -3305601.8     -3305624.8      23.017083      446.28547     -4461.3163    
     21400  -3305602       -3305625.7      23.678708      459.11392     -3351.0548    
     21500  -3305602.2     -3305623.5      21.318369      413.34857     -3940.8612    
     21600  -3305602.4     -3305624.7      22.342081      433.19765     -4373.2697    
     21700  -3305602.6     -3305624.5      21.847147      423.60122     -4324.0213    
     21800  -3305602.9     -3305624.9      22.008749      426.73456     -5958.2711    
     21900  -3305603.1     -3305625.7      22.592742      438.05779     -824.86158    
     22000  -3305603.4     -3305625.9      22.497904      436.21895     -5888.6693    
     22100  -3305603.7     -3305625.6      21.920743      425.02818     -4448.7604    
     22200  -3305603.9     -3305626.2      22.301651      432.41373     -2455.4112    
     22300  -3305604       -3305626.5      22.46206       435.52395     -5685.0656    
     22400  -3305604.2     -3305626.2      22.072164      427.96413     -5667.3973    
     22500  -3305604.2     -3305624.1      19.884234      385.54168     -3532.6394    
     22600  -3305604.3     -3305625.8      21.540038      417.64658     -4185.8295    
     22700  -3305604.2     -3305627.1      22.899052      443.99694     -6879.3692    
     22800  -3305604.1     -3305625.8      21.719909      421.13415     -3384.8028    
     22900  -3305603.9     -3305625.8      21.924159      425.09443     -5092.14      
     23000  -3305603.6     -3305625.3      21.617891      419.15611     -6131.9219    
     23100  -3305603.3     -3305625.4      22.063481      427.79578     -5888.8106    
     23200  -3305603       -3305625.1      22.139252      429.26493     -4831.7764    
     23300  -3305602.6     -3305625.2      22.616404      438.51658     -6678.1368    
     23400  -3305602.1     -3305624.3      22.22496       430.92675     -2972.2342    
     23500  -3305601.7     -3305623.3      21.586316      418.54387     -4743.2005    
     23600  -3305601.2     -3305624        22.773056      441.55396     -4803.4748    
     23700  -3305600.8     -3305624        23.218824      450.19709     -3877.6122    
     23800  -3305600.4     -3305623.5      23.141808      448.70381     -6486.7708    
     23900  -3305600       -3305623.1      23.110027      448.08759     -6101.9841    
     24000  -3305599.7     -3305624.1      24.352392      472.17619     -5276.2771    
     24100  -3305599.4     -3305623.3      23.899561      463.39611     -6680.576     
     24200  -3305599.3     -3305623.9      24.687252      478.6689      -4764.0348    
     24300  -3305599.1     -3305622.2      23.047377      446.87285     -3856.0022    
     24400  -3305599.1     -3305620.7      21.628745      419.36655     -3176.9125    
     24500  -3305599       -3305622.5      23.417532      454.04991     -2825.9649    
     24600  -3305599.1     -3305622.8      23.738131      460.26609     -6968.6855    
     24700  -3305599.2     -3305624.9      25.76429       499.55193     -7321.5666    
     24800  -3305599.3     -3305623.7      24.345244      472.03761     -3840.2711    
     24900  -3305599.6     -3305623.3      23.702881      459.58263     -2907.6252    
     25000  -3305599.9     -3305623.4      23.50592       455.76368     -2317.842     
     25100  -3305600.2     -3305624.4      24.175637      468.74903     -4425.7184    
     25200  -3305600.6     -3305622.8      22.205776      430.55479     -3293.3098    
     25300  -3305600.9     -3305624.2      23.355279      452.84285     -5009.9838    
     25400  -3305601.2     -3305624.5      23.292851      451.63242     -2247.3072    
     25500  -3305601.5     -3305625.4      23.916923      463.73275     -6278.4641    
     25600  -3305601.7     -3305624.2      22.452193      435.33264     -2552.262     
     25700  -3305602       -3305624.4      22.406791      434.45232     -6805.8713    
     25800  -3305602.1     -3305625.9      23.805401      461.57042     -4706.9861    
     25900  -3305602.2     -3305624.9      22.62832       438.74763     -1827.0451    
     26000  -3305602.3     -3305623.3      21.075971      408.64864     -5248.5534    
     26100  -3305602.2     -3305625.3      23.071605      447.34263     -3071.2979    
     26200  -3305602.1     -3305624.1      21.996683      426.50062     -2694.6951    
     26300  -3305601.9     -3305624.9      22.990436      445.7688      -4464.0638    
     26400  -3305601.6     -3305624.4      22.771421      441.52226     -4485.1112    
     26500  -3305601.3     -3305625        23.729511      460.09897     -6177.1889    
     26600  -3305600.9     -3305624.1      23.224257      450.30243     -2338.2122    
     26700  -3305600.5     -3305623.9      23.402545      453.75931     -2773.6236    
     26800  -3305600.1     -3305622.4      22.377769      433.88961     -3112.9303    
     26900  -3305599.6     -3305623.1      23.42584       454.21099     -3613.3835    
     27000  -3305599.2     -3305622.9      23.644533      458.4513      -3629.5903    
     27100  -3305598.8     -3305623.6      24.773822      480.34745     -5455.3552    
     27200  -3305598.4     -3305622.4      23.952837      464.42911     -2580.2351    
     27300  -3305598.1     -3305622.8      24.671966      478.37251     -1768.8746    
     27400  -3305597.8     -3305623        25.228077      489.15512     -3794.9793    
     27500  -3305597.6     -3305621.6      24.067598      466.65425     -3051.733     
     27600  -3305597.4     -3305620.8      23.465496      454.97989     -5000.7949    
     27700  -3305597.2     -3305621.3      24.063779      466.58018     -5034.7522    
     27800  -3305597.1     -3305622.4      25.330476      491.14057     -1036.1395    
     27900  -3305597       -3305621.6      24.615781      477.28313     -5149.5242    
     28000  -3305597       -3305621.6      24.564264      476.28425     -5538.0946    
     28100  -3305597.1     -3305622.6      25.517106      494.7592      -895.62305    
     28200  -3305597.2     -3305621.1      23.853         462.49333     -4070.6938    
     28300  -3305597.4     -3305622.4      24.986453      484.47021     -4642.8399    
     28400  -3305597.7     -3305622.8      25.10418       486.75285     -4292.7552    
     28500  -3305598       -3305621.4      23.42104       454.11792     -5609.6209    
     28600  -3305598.3     -3305622.2      23.860736      462.64333     -4018.4794    
     28700  -3305598.7     -3305624.3      25.591303      496.19784     -3388.0627    
     28800  -3305599       -3305622.9      23.897363      463.3535      -3569.6495    
     28900  -3305599.3     -3305623        23.733065      460.16788     -4739.0734    
     29000  -3305599.5     -3305622.3      22.789918      441.88089     -5459.6356    
     29100  -3305599.7     -3305624.4      24.647016      477.88875     -2636.6285    
     29200  -3305599.8     -3305623.3      23.434861      454.38589     -4229.172     
     29300  -3305599.9     -3305623.1      23.202234      449.87543     -5570.5672    
     29400  -3305599.9     -3305623.7      23.785412      461.18284     -2347.0603    
     29500  -3305599.9     -3305623.4      23.486945      455.39578     -5130.9662    
     29600  -3305599.8     -3305625        25.261507      489.80331     -2496.1107    
     29700  -3305599.6     -3305623        23.392194      453.55862     -1722.948     
     29800  -3305599.3     -3305623        23.621868      458.01184     -2144.4115    
     29900  -3305599.1     -3305623.9      24.801133      480.87698     -4039.7948    
     30000  -3305598.8     -3305623.5      24.718669      479.27806     -2583.3567    
     30100  -3305598.4     -3305623.4      24.93488       483.47024     -3040.7846    
     30200  -3305598.1     -3305623.1      25.010563      484.93769     -4479.6662    
     30300  -3305597.7     -3305622.4      24.751128      479.90743     -486.96097    
     30400  -3305597.3     -3305622.2      24.908494      482.95864     -3677.7936    
     30500  -3305596.9     -3305623.7      26.822302      520.06607     -2804.7408    
     30600  -3305596.6     -3305622.5      25.907656      502.33169     -2922.4768    
     30700  -3305596.4     -3305623.2      26.812959      519.88491     -1632.7711    
     30800  -3305596.2     -3305621.8      25.613872      496.63544     -5625.7267    
     30900  -3305596.1     -3305621        24.837487      481.58187     -824.30903    
     31000  -3305596.1     -3305621.7      25.623807      496.82807     -3937.3881    
     31100  -3305596.1     -3305623.2      27.096252      525.37776     -2390.5692    
     31200  -3305596.1     -3305621.1      24.910876      483.00481     -1131.0695    
     31300  -3305596.3     -3305622.3      26.068626      505.45281     -2639.2062    
     31400  -3305596.4     -3305620.8      24.353059      472.18913     -5569.8728    
     31500  -3305596.7     -3305622        25.317585      490.89064     -5283.1616    
     31600  -3305596.9     -3305621.4      24.50741       475.1819      -2768.9691    
     31700  -3305597.2     -3305622.4      25.235472      489.29852     -5163.187     
     31800  -3305597.5     -3305623.4      25.935328      502.86825     -4752.677     
     31900  -3305597.8     -3305623.4      25.585002      496.07567     -3707.8376    
     32000  -3305598.1     -3305624.2      26.10756       506.20771     -1224.6227    
     32100  -3305598.3     -3305623.1      24.760727      480.09354     -4173.0288    
     32200  -3305598.6     -3305623.6      24.979281      484.33114     -1814.4038    
     32300  -3305598.8     -3305624.3      25.535361      495.11315     -3354.2153    
     32400  -3305598.9     -3305623.2      24.273512      470.64676     -4735.364     
     32500  -3305599       -3305624.7      25.715024      498.5967      -3010.3137    
     32600  -3305598.9     -3305623.2      24.28913       470.9496      -664.69095    
     32700  -3305598.7     -3305623.3      24.539522      475.80452     -5300.7686    
     32800  -3305598.5     -3305622.6      24.059007      466.48767     -4968.2316    
     32900  -3305598.2     -3305622.9      24.774187      480.35451     -3445.3688    
     33000  -3305597.8     -3305623.2      25.4605        493.66165     -5028.7276    
     33100  -3305597.3     -3305624.1      26.791241      519.46381     -3498.7022    
     33200  -3305596.8     -3305623.2      26.394538      511.77201     -2566.8371    
     33300  -3305596.3     -3305622.1      25.816845      500.57093     -7420.1682    
     33400  -3305595.8     -3305621.6      25.761121      499.49049     -1343.8823    
     33500  -3305595.3     -3305620.6      25.312656      490.79506     -3071.3536    
     33600  -3305594.8     -3305621.5      26.698356      517.66283     -5151.0942    
     33700  -3305594.4     -3305621.9      27.462771      532.48431     -3146.3208    
     33800  -3305594       -3305621.2      27.149026      526.40102     -2711.7279    
     33900  -3305593.7     -3305621.3      27.621537      535.56268     -4102.7939    
     34000  -3305593.5     -3305620        26.492479      513.67102     -8484.0288    
     34100  -3305593.3     -3305619.5      26.128144      506.60681     -1351.1015    
     34200  -3305593.3     -3305620.8      27.541418      534.00923     -462.07068    
     34300  -3305593.4     -3305622.2      28.869161      559.75325     -3637.0137    
     34400  -3305593.5     -3305620.8      27.269861      528.74393     -5914.0286    
     34500  -3305593.8     -3305622        28.164341      546.08728     -4476.4036    
     34600  -3305594.2     -3305620.8      26.67608       517.23092     -1821.9978    
     34700  -3305594.6     -3305621.2      26.62785       516.29578     -4898.8717    
     34800  -3305595       -3305621.3      26.258721      509.13861     -3973.262     
     34900  -3305595.5     -3305620.8      25.302505      490.59824     -3417.8055    
     35000  -3305595.9     -3305619.9      24.040057      466.12025     -4112.0118    
     35100  -3305596.2     -3305621.7      25.44881       493.43499     -2970.5112    
     35200  -3305596.5     -3305622        25.527813      494.96681     -2000.2735    
     35300  -3305596.8     -3305622.1      25.375385      492.01134     -3604.5829    
     35400  -3305596.9     -3305621        24.061785      466.54153     -4012.6752    
     35500  -3305597       -3305621.9      24.937149      483.51425     -4174.8671    
     35600  -3305597       -3305622.3      25.30342       490.61598     -5221.4178    
     35700  -3305596.9     -3305622.8      25.953754      503.22551     -6314.086     
     35800  -3305596.7     -3305623.7      26.971695      522.9627      -3590.3595    
     35900  -3305596.5     -3305622.4      25.908018      502.33873     -3397.9401    
     36000  -3305596.2     -3305622.3      26.142575      506.88662     -3790.9565    
     36100  -3305595.8     -3305620.9      25.083749      486.3567      -3275.8808    
     36200  -3305595.4     -3305621.6      26.183711      507.68422     -5121.3103    
     36300  -3305594.9     -3305621.4      26.522705      514.25707     -3930.3634    
     36400  -3305594.3     -3305621.6      27.280507      528.95034     -4879.9338    
     36500  -3305593.7     -3305620.7      26.914879      521.86107     -4516.6512    
     36600  -3305593.1     -3305619.3      26.123759      506.5218      -5756.965     
     36700  -3305592.5     -3305619.6      27.054847      524.57495     -4033.0244    
     36800  -3305591.9     -3305618.5      26.581607      515.39915     -4421.0619    
     36900  -3305591.4     -3305618.8      27.426329      531.77774     -6100.7439    
     37000  -3305590.9     -3305618.3      27.407897      531.42035     -3198.0239    
     37100  -3305590.5     -3305618.6      28.119186      545.21176     -4228.4201    
     37200  -3305590.2     -3305618        27.829439      539.59376     -1447.4949    
     37300  -3305590       -3305618.2      28.210485      546.98199     -5005.3395    
     37400  -3305590       -3305618.5      28.571156      553.97515     -2645.6682    
     37500  -3305590.1     -3305618.3      28.206395      546.90268     -2817.0528    
     37600  -3305590.4     -3305620.1      29.728731      576.41973     -5249.1464    
     37700  -3305590.8     -3305617.7      26.947844      522.50024     -2465.4587    
     37800  -3305591.2     -3305619.7      28.46854       551.98549     -1690.0824    
     37900  -3305591.7     -3305620.2      28.510426      552.79763     -1739.1991    
     38000  -3305592.3     -3305618.3      26.035084      504.80245     -6189.2258    
     38100  -3305592.8     -3305618.5      25.783895      499.93207     -5354.4709    
     38200  -3305593.2     -3305620.2      26.993921      523.39364     -4071.2377    
     38300  -3305593.7     -3305620.5      26.772228      519.09517     -4976.3342    
     38400  -3305594.1     -3305620.6      26.539041      514.57382     -5422.626     
     38500  -3305594.5     -3305621        26.498979      513.79706     -3460.6824    
     38600  -3305594.8     -3305622.2      27.452131      532.27801     -2940.7385    
     38700  -3305595       -3305621.2      26.151287      507.05554     -7926.2939    
     38800  -3305595.2     -3305621.6      26.426728      512.39615     -5446.0617    
     38900  -3305595.2     -3305621.5      26.322196      510.36935     -5225.7224    
     39000  -3305595.2     -3305621.2      26.072228      505.52264     -4077.5213    
     39100  -3305595       -3305621.2      26.238558      508.74766     -1428.9664    
     39200  -3305594.8     -3305621.4      26.584741      515.45992     -3683.6778    
     39300  -3305594.5     -3305620.7      26.262161      509.20531     -5354.4225    
     39400  -3305594       -3305620.6      26.512668      514.06247     -1622.6457    
     39500  -3305593.5     -3305618.6      25.038943      485.48795     -2942.9086    
     39600  -3305592.9     -3305620.3      27.381972      530.91769     -4535.7958    
     39700  -3305592.3     -3305619.6      27.306206      529.44863     -6044.3085    
     39800  -3305591.6     -3305618.4      26.728126      518.24006     -1785.8581    
     39900  -3305590.9     -3305618.3      27.427167      531.79399     -4954.064     
     40000  -3305590.2     -3305619.2      28.97045       561.71718     -4808.6567    
     40100  -3305589.6     -3305618        28.378361      550.23698     -3938.3515    
     40200  -3305589       -3305616.8      27.773769      538.51436     -6827.3338    
     40300  -3305588.5     -3305617.5      28.96918       561.69255     -1628.4402    
     40400  -3305588       -3305618        29.968686      581.07229     -2949.066     
     40500  -3305587.7     -3305617.2      29.540864      572.77713     -5688.6907    
     40600  -3305587.5     -3305618.4      30.925015      599.61485     -1920.411     
     40700  -3305587.4     -3305615.5      28.058245      544.03016     -3307.3027    
     40800  -3305587.5     -3305615.6      28.161809      546.03819     -4510.8733    
     40900  -3305587.6     -3305616.4      28.79945       558.4016      -1964.6611    
     41000  -3305587.8     -3305616.1      28.326779      549.23684     -4181.1019    
     41100  -3305588       -3305616.7      28.705657      556.58302     -8231.4133    
     41200  -3305588.3     -3305617.9      29.518399      572.34153     -2721.3888    
     41300  -3305588.7     -3305618.3      29.630035      574.50607     -6440.7213    
     41400  -3305589       -3305617.5      28.489837      552.39843     -5224.052     
     41500  -3305589.3     -3305618.8      29.510144      572.18148     -4232.8366    
     41600  -3305589.7     -3305618.1      28.416761      550.98154     -1233.2711    
     41700  -3305590       -3305619.6      29.569184      573.32623     -3151.6665    
     41800  -3305590.4     -3305617.7      27.244989      528.26168     -2916.3633    
     41900  -3305590.7     -3305617.2      26.426467      512.39109     -2781.3616    
     42000  -3305591       -3305619.7      28.671469      555.92015     -2292.7224    
     42100  -3305591.2     -3305618.6      27.345061      530.20201     -3721.3202    
     42200  -3305591.4     -3305618.5      27.09698       525.39189     -3342.4815    
     42300  -3305591.4     -3305619.8      28.392442      550.51        -4117.7335    
     42400  -3305591.4     -3305619.1      27.654465      536.20113     -3838.6593    
     42500  -3305591.4     -3305617.7      26.3045        510.02623     -2679.2209    
     42600  -3305591.2     -3305618.3      27.104541      525.53848     -2414.2528    
     42700  -3305590.9     -3305619.2      28.289222      548.50863     -4552.8583    
     42800  -3305590.6     -3305618.8      28.221189      547.18952     -4945.0461    
     42900  -3305590.2     -3305618.8      28.637834      555.26799     -1635.0497    
     43000  -3305589.8     -3305618.9      29.187902      565.93342     -1115.973     
     43100  -3305589.3     -3305619.1      29.772411      577.26665     -8550.9638    
     43200  -3305588.8     -3305618.6      29.758953      577.00571     -4265.2779    
     43300  -3305588.4     -3305617.5      29.134783      564.90348     -5885.7612    
     43400  -3305587.9     -3305617        29.090265      564.04031     -2599.886     
     43500  -3305587.5     -3305616.3      28.795539      558.32577     -5471.3624    
     43600  -3305587       -3305616.9      29.813065      578.05491     -4451.1537    
     43700  -3305586.7     -3305616.7      30.00232       581.72443     -3464.8147    
     43800  -3305586.4     -3305615.8      29.324425      568.58052     -3792.9394    
     43900  -3305586.3     -3305615.7      29.493282      571.85454     -2581.7551    
     44000  -3305586.1     -3305616.9      30.782877      596.85889     -3583.114     
     44100  -3305586.1     -3305615.7      29.620672      574.32453     -3912.4555    
     44200  -3305586.2     -3305615.5      29.329341      568.67584     -2537.2637    
     44300  -3305586.3     -3305616.7      30.386652      589.17637     -5073.859     
     44400  -3305586.5     -3305615.3      28.83804       559.14984     -3299.7716    
     44500  -3305586.7     -3305618.8      32.099531      622.38792     -5692.4375    
     44600  -3305587       -3305617.7      30.730799      595.84915     -5655.0571    
     44700  -3305587.3     -3305615.3      27.959168      542.10912     -4704.7078    
     44800  -3305587.6     -3305616.1      28.455903      551.74047     -1291.0689    
     44900  -3305587.9     -3305617.3      29.37939       569.64625     -5744.5619    
     45000  -3305588.2     -3305618.3      30.096594      583.55235     -4548.8097    
     45100  -3305588.5     -3305617        28.447701      551.58144     -5930.2678    
     45200  -3305588.8     -3305617.6      28.812222      558.64926     -5102.0324    
     45300  -3305589       -3305617.9      28.936922      561.06709     -5188.2694    
     45400  -3305589.2     -3305617.8      28.651544      555.53381     -3316.6855    
     45500  -3305589.2     -3305616.4      27.226276      527.89884     -4740.0956    
     45600  -3305589.2     -3305616.7      27.576475      534.68895     -2972.3893    
     45700  -3305589       -3305617.3      28.278349      548.29781     -3298.7093    
     45800  -3305588.8     -3305617        28.220835      547.18265     -5248.9404    
     45900  -3305588.5     -3305618        29.536422      572.69099     -5720.5863    
     46000  -3305588.1     -3305618.3      30.183367      585.23481     -4629.8346    
     46100  -3305587.7     -3305618.3      30.553172      592.40508     -2769.5743    
     46200  -3305587.3     -3305616.2      28.894878      560.2519      -5222.3161    
     46300  -3305586.8     -3305617.1      30.24224       586.37632     -3565.0889    
     46400  -3305586.4     -3305616.8      30.403089      589.49507     -3121.0431    
     46500  -3305586       -3305617.7      31.726861      615.16211     -2321.3267    
     46600  -3305585.6     -3305616.1      30.508559      591.54006     -4736.1199    
     46700  -3305585.2     -3305615.8      30.65413       594.36257     -2372.9546    
     46800  -3305584.8     -3305615.8      30.918672      599.49186     -974.09052    
     46900  -3305584.5     -3305614.1      29.585734      573.64711     -8053.5945    
     47000  -3305584.3     -3305614.9      30.651074      594.30332     -1459.2655    
     47100  -3305584.1     -3305616.6      32.553395      631.18803     -40.941634    
     47200  -3305583.9     -3305615.2      31.316397      607.20349     -5032.7465    
     47300  -3305583.8     -3305614.9      31.166708      604.30112     -3935.0038    
     47400  -3305583.7     -3305614.9      31.245528      605.82939     -4466.5147    
     47500  -3305583.6     -3305614.8      31.148649      603.95096     -5551.7261    
     47600  -3305583.6     -3305614.1      30.460079      590.60006     -1226.0706    
     47700  -3305583.7     -3305614.8      31.138547      603.7551      -7566.8319    
     47800  -3305583.8     -3305614.2      30.3661        588.77787     -4001.7431    
     47900  -3305583.9     -3305615.2      31.287911      606.65116     -4104.6392    
     48000  -3305584       -3305613.5      29.432873      570.68325     -5368.6242    
     48100  -3305584.1     -3305614.3      30.186471      585.295       -5190.2295    
     48200  -3305584.2     -3305614.3      30.056996      582.78456     -5366.6936    
     48300  -3305584.3     -3305614.8      30.546827      592.28206     -2595.3887    
     48400  -3305584.4     -3305615.7      31.341987      607.69966     -3013.1723    
     48500  -3305584.5     -3305614.3      29.795113      577.70683      762.50927    
     48600  -3305584.6     -3305614.8      30.162642      584.83297     -2534.3371    
     48700  -3305584.7     -3305614.8      30.043888      582.5304      -2986.2637    
     48800  -3305584.9     -3305613.9      29.025148      562.77774     -1497.884     
     48900  -3305585.1     -3305614.1      29.044783      563.15845     -3223.9049    
     49000  -3305585.2     -3305615.8      30.586914      593.05932     -3939.9245    
     49100  -3305585.2     -3305613.7      28.487688      552.35675     -2374.9616    
     49200  -3305585.3     -3305615.6      30.255395      586.63138     -3557.2463    
     49300  -3305585.3     -3305616.6      31.243472      605.78952     -4006.5272    
     49400  -3305585.4     -3305616.3      30.903661      599.20081     -3442.4555    
     49500  -3305585.4     -3305616        30.674437      594.75631     -3567.3627    
     49600  -3305585.3     -3305614.2      28.93627       561.05446     -5376.8931    
     49700  -3305585.2     -3305614.6      29.388695      569.82666     -1848.4658    
     49800  -3305585       -3305614        29.059947      563.45246     -3149.257     
     49900  -3305584.7     -3305615.2      30.484679      591.07704     -2870.418     
     50000  -3305584.5     -3305613.9      29.44361       570.89144     -1447.4238    
Loop time of 4284.58 on 72 procs for 50000 steps with 400 atoms

Performance: 2.017 ns/day, 11.902 hours/ns, 11.670 timesteps/s, 4.668 katom-step/s
91.3% CPU use with 72 MPI tasks x 1 OpenMP threads

MPI task timing breakdown:
Section |  min time  |  avg time  |  max time  |%varavg| %total
---------------------------------------------------------------
Pair    | 2546.6     | 3222.1     | 3772.6     | 478.8 | 75.20
Bond    | 0.024165   | 0.034719   | 0.045964   |   3.0 |  0.00
Neigh   | 0.061762   | 0.077835   | 0.092398   |   2.3 |  0.00
Comm    | 510.37     | 1060.9     | 1736.5     | 834.4 | 24.76
Output  | 0.065922   | 0.066392   | 0.075343   |   0.4 |  0.00
Modify  | 0.94669    | 1.0059     | 1.3584     |   5.0 |  0.02
Other   |            | 0.4342     |            |       |  0.01

Nlocal:        5.55556 ave           9 max           3 min
Histogram: 2 16 0 16 0 21 13 0 3 1
Nghost:        381.264 ave         393 max         369 min
Histogram: 6 12 7 3 4 6 8 11 11 4
Neighs:              0 ave           0 max           0 min
Histogram: 72 0 0 0 0 0 0 0 0 0
FullNghs:      463.389 ave         763 max         249 min
Histogram: 2 16 2 14 14 8 11 1 3 1

Total # of neighbors = 33364
Ave neighs/atom = 83.41
Ave special neighs/atom = 0
Neighbor list builds = 2213
Dangerous builds = 0
unfix therm_equ

fix therm_equ2 all nvt temp 600 300 1.0
run 100000
Per MPI rank memory allocation (min/avg/max) = 8.036 | 8.036 | 8.038 Mbytes
   Step         TotEng         PotEng         KinEng          Temp          Press     
     50000  -3305584.5     -3305613.9      29.44361       570.89144     -1447.4238    
     50100  -3305584.5     -3305617.2      32.691419      633.86422      145.27981    
     50200  -3305584.6     -3305615.4      30.794533      597.08489     -2926.3286    
     50300  -3305584.7     -3305615.7      30.990257      600.87984     -2235.2123    
     50400  -3305584.9     -3305616.8      31.920369      618.91409     -5078.1252    
     50500  -3305585       -3305615.5      30.490609      591.19201     -3522.7434    
     50600  -3305585.3     -3305616.1      30.810799      597.40028     -2913.721     
     50700  -3305585.7     -3305617.3      31.585935      612.42963     -4481.972     
     50800  -3305586.2     -3305617.2      30.951313      600.12476     -3601.446     
     50900  -3305586.9     -3305617.7      30.757177      596.36059     -2487.9747    
     51000  -3305587.7     -3305617.7      30.074322      583.12051     -6066.4998    
     51100  -3305588.4     -3305617        28.615148      554.82812     -6108.6907    
     51200  -3305588.9     -3305619        30.083473      583.29793     -4021.5084    
     51300  -3305589.3     -3305619.5      30.257066      586.66378     -5834.2151    
     51400  -3305589.5     -3305618.6      29.099045      564.21055     -6024.4901    
     51500  -3305589.6     -3305621.2      31.588828      612.48574     -2344.6161    
     51600  -3305589.6     -3305618.7      29.02199       562.7165      -4871.8879    
     51700  -3305589.6     -3305618.2      28.664274      555.78063     -2461.377     
     51800  -3305589.4     -3305618        28.576623      554.08114     -2615.1138    
     51900  -3305589.2     -3305617.1      27.978088      542.47596     -3028.572     
     52000  -3305588.8     -3305616        27.119527      525.82904     -4538.9455    
     52100  -3305588.5     -3305618        29.508983      572.15896     -3495.5915    
     52200  -3305588.1     -3305617.6      29.480516      571.60702     -3199.8646    
     52300  -3305587.8     -3305618.4      30.542723      592.20249     -644.90775    
     52400  -3305587.5     -3305618.5      30.977384      600.63025     -6051.7642    
     52500  -3305587.3     -3305618        30.713127      595.50649     -3315.8251    
     52600  -3305587.1     -3305617.8      30.651815      594.3177      -5269.6942    
     52700  -3305586.9     -3305617.1      30.12589       584.12036     -3556.2764    
     52800  -3305586.8     -3305617.6      30.873517      598.61635     -6232.8762    
     52900  -3305586.6     -3305616.5      29.912029      579.97374     -3865.3294    
     53000  -3305586.5     -3305619.6      33.071994      641.2433      -3161.6656    
     53100  -3305586.4     -3305617.2      30.773717      596.68128     -4958.6692    
     53200  -3305586.3     -3305615.5      29.252475      567.18546     -4167.5123    
     53300  -3305586.2     -3305617.1      30.866281      598.47605     -2678.3112    
     53400  -3305586.2     -3305617.1      30.96725       600.43377     -3699.0598    
     53500  -3305586.1     -3305615.8      29.679621      575.46751     -1181.904     
     53600  -3305586.1     -3305616.2      30.066637      582.97149     -114.08734    
     53700  -3305586.1     -3305617.5      31.367504      608.19442     -4619.6336    
     53800  -3305586.2     -3305616.4      30.164023      584.85974      723.81159    
     53900  -3305586.3     -3305616.7      30.407982      589.58994     -3991.7769    
     54000  -3305586.5     -3305617.8      31.321412      607.30073     -1851.8364    
     54100  -3305586.7     -3305617.1      30.412099      589.66976     -3597.532     
     54200  -3305587.1     -3305616.8      29.626599      574.43946     -4140.2913    
     54300  -3305587.8     -3305616.8      29.00656       562.41732     -2075.3362    
     54400  -3305588.5     -3305618.3      29.774692      577.31088     -3430.7693    
     54500  -3305589.3     -3305618.4      29.140132      565.00721     -6931.4006    
     54600  -3305589.8     -3305620.9      31.078158      602.5842      -5748.8492    
     54700  -3305590.2     -3305619.5      29.334341      568.77278     -4976.4822    
     54800  -3305590.3     -3305616.8      26.495734      513.73414     -8013.4169    
     54900  -3305590.3     -3305617.1      26.831609      520.24651     -3354.1961    
     55000  -3305590.1     -3305618.6      28.470142      552.01654     -2623.4172    
     55100  -3305589.8     -3305620.2      30.431835      590.05243     -3015.7321    
     55200  -3305589.5     -3305618.8      29.339714      568.87695     -6149.9589    
     55300  -3305589       -3305619.8      30.814073      597.46378     -3366.8524    
     55400  -3305588.5     -3305617.2      28.620627      554.93435     -4094.0152    
     55500  -3305588       -3305618.6      30.600112      593.31521     -4609.2229    
     55600  -3305587.6     -3305614.9      27.333699      529.98169     -3395.6985    
     55700  -3305587.2     -3305617.1      29.85987       578.96243     -749.91325    
     55800  -3305586.9     -3305618.2      31.290656      606.70438     -2222.3103    
     55900  -3305586.7     -3305617.5      30.82249       597.62698     -1800.8958    
     56000  -3305586.6     -3305616.7      30.133758      584.27293     -4931.0973    
     56100  -3305586.5     -3305616.6      30.195168      585.46363     -3872.6856    
     56200  -3305586.4     -3305617        30.599923      593.31154     -3159.4143    
     56300  -3305586.4     -3305616.6      30.227568      586.09183     -2055.1453    
     56400  -3305586.4     -3305615.9      29.440888      570.83864     -5940.595     
     56500  -3305586.5     -3305618        31.504349      610.84775     -5950.8286    
     56600  -3305586.6     -3305616.2      29.585478      573.64214     -1158.0048    
     56700  -3305586.7     -3305616.9      30.131309      584.22543     -4079.0528    
     56800  -3305586.9     -3305618.4      31.479141      610.35897     -2966.3423    
     56900  -3305587.2     -3305616.1      28.884895      560.05832     -4665.2419    
     57000  -3305587.6     -3305618.4      30.831288      597.79755     -2436.8957    
     57100  -3305588.1     -3305617.6      29.537067      572.70349     -3110.7801    
     57200  -3305588.6     -3305618.5      29.959664      580.89737     -4340.8244    
     57300  -3305589       -3305617.7      28.691127      556.30131     -3647.6946    
     57400  -3305589.4     -3305620.7      31.272639      606.35506     -3600.2171    
     57500  -3305589.7     -3305619.3      29.545224      572.86165     -2550.6479    
     57600  -3305590       -3305618.4      28.420792      551.05968     -1869.7472    
     57700  -3305590.1     -3305618.3      28.153627      545.87955     -1880.3983    
     57800  -3305590.1     -3305619.7      29.522721      572.42533     -4341.4778    
     57900  -3305590.1     -3305617.8      27.654347      536.19885     -4970.356     
     58000  -3305590       -3305619.3      29.320641      568.50715     -4101.1291    
     58100  -3305589.9     -3305619.6      29.679123      575.45786     -5297.4511    
     58200  -3305589.7     -3305619.1      29.377122      569.60228     -5901.8769    
     58300  -3305589.6     -3305617.2      27.601352      535.1713      -7666.5472    
     58400  -3305589.4     -3305617.8      28.359998      549.88093     -3965.358     
     58500  -3305589.2     -3305618.6      29.444606      570.91074     -4778.3271    
     58600  -3305588.9     -3305618.9      29.95691       580.84397     -6418.62      
     58700  -3305588.7     -3305616.3      27.646104      536.03901     -5090.9351    
     58800  -3305588.4     -3305618.3      29.812564      578.0452      -2460.877     
     58900  -3305588.2     -3305617.8      29.618459      574.28163     -4357.7843    
     59000  -3305587.8     -3305619.3      31.494982      610.66612     -3954.2729    
     59100  -3305587.5     -3305617.3      29.756739      576.96278     -4772.7859    
     59200  -3305587.3     -3305615.3      28.004978      542.99735     -548.94889    
     59300  -3305587       -3305618.1      31.111468      603.23006     -656.02595    
     59400  -3305586.8     -3305616.1      29.296279      568.03478     -6000.9605    
     59500  -3305586.6     -3305618.5      31.895008      618.42236     -1977.476     
     59600  -3305586.5     -3305617        30.470911      590.8101      -4843.8256    
     59700  -3305586.5     -3305617.1      30.589145      593.10257     -4812.9897    
     59800  -3305586.7     -3305616.5      29.800653      577.81425     -4223.0291    
     59900  -3305586.9     -3305615.9      28.981852      561.93825     -1832.1681    
     60000  -3305587.4     -3305618.6      31.289073      606.6737      -3308.5032    
     60100  -3305588       -3305618        29.987589      581.43881     -3406.2001    
     60200  -3305588.9     -3305618.1      29.207313      566.30979     -4543.0729    
     60300  -3305589.7     -3305619.7      29.961301      580.9291      -5657.9581    
     60400  -3305590.3     -3305619.7      29.357506      569.22194      382.10897    
     60500  -3305590.8     -3305618.7      27.950031      541.93195     -4191.8196    
     60600  -3305591       -3305619.5      28.542872      553.42673     -2250.5495    
     60700  -3305591.1     -3305619.2      28.103758      544.91262     -631.4209     
     60800  -3305591.2     -3305619.9      28.709237      556.65243     -5682.321     
     60900  -3305591.1     -3305619.4      28.279734      548.32467     -3281.6186    
     61000  -3305591       -3305620.1      29.137949      564.96487     -1215.4561    
     61100  -3305590.8     -3305619.8      29.031257      562.89619     -4509.2371    
     61200  -3305590.6     -3305618.9      28.353713      549.75908     -1895.2672    
     61300  -3305590.3     -3305618        27.70758       537.231       -1790.2287    
     61400  -3305590       -3305618.7      28.701751      556.50729     -2312.6723    
     61500  -3305589.7     -3305618.9      29.272355      567.57092     -2518.7601    
     61600  -3305589.4     -3305619        29.576816      573.47421     -3106.5198    
     61700  -3305589.1     -3305618.2      29.11316       564.48423     -4302.2434    
     61800  -3305588.8     -3305618.8      29.954718      580.80146     -1074.0917    
     61900  -3305588.5     -3305617        28.464521      551.90757     -6837.3387    
     62000  -3305588.2     -3305617.8      29.630949      574.5238      -3525.0943    
     62100  -3305587.8     -3305616.9      29.066001      563.56985     -800.45536    
     62200  -3305587.5     -3305616.8      29.335048      568.78648     -1610.7107    
     62300  -3305587       -3305617.3      30.344169      588.35265     -3742.0486    
     62400  -3305586.5     -3305618.4      31.908294      618.67997     -4879.0165    
     62500  -3305585.8     -3305617.6      31.731934      615.26046     -4507.5421    
     62600  -3305585.3     -3305615.8      30.589533      593.11009     -4008.9785    
     62700  -3305584.7     -3305615.5      30.80603       597.30781     -3731.571     
     62800  -3305584.2     -3305615.3      31.056498      602.16422     -5332.046     
     62900  -3305583.9     -3305616.1      32.1434        623.2385      -3389.0857    
     63000  -3305583.8     -3305615        31.180685      604.57212     -3477.139     
     63100  -3305584       -3305614.6      30.669433      594.65931     -4974.7972    
     63200  -3305584.4     -3305615.9      31.564594      612.01585     -2774.7446    
     63300  -3305585.1     -3305616.6      31.405907      608.93902     -2555.1421    
     63400  -3305586.2     -3305618.3      32.05463       621.51733     -2685.9028    
     63500  -3305587.2     -3305617.7      30.483606      591.05624     -6885.3374    
     63600  -3305587.8     -3305617.4      29.573432      573.40859     -1687.7458    
     63700  -3305588.3     -3305618.3      30.054934      582.74458     -6308.2731    
     63800  -3305588.7     -3305618.2      29.552476      573.00227     -4875.5654    
     63900  -3305589.1     -3305617.5      28.386224      550.38943     -1563.0217    
     64000  -3305589.5     -3305618.3      28.768273      557.79711     -5485.1815    
     64100  -3305589.9     -3305619.5      29.558108      573.11148     -3268.6349    
     64200  -3305590.4     -3305619.9      29.458607      571.18222     -3135.5038    
     64300  -3305591       -3305620.2      29.201621      566.19943     -4090.3518    
     64400  -3305591.5     -3305621.4      29.915818      580.04721     -993.33187    
     64500  -3305592       -3305621        29.045711      563.17644     -1351.3796    
     64600  -3305592.4     -3305619.4      27.036387      524.21703     -2923.7878    
     64700  -3305592.8     -3305619.7      26.942161      522.39004     -267.46183    
     64800  -3305593       -3305621.7      28.60564       554.64377     -3310.087     
     64900  -3305593.3     -3305621.3      27.98989       542.7048      -3786.5334    
     65000  -3305593.4     -3305621.6      28.152546      545.85858     -1744.3959    
     65100  -3305593.6     -3305621.8      28.232202      547.40305     -1712.9709    
     65200  -3305593.6     -3305620.3      26.781873      519.28216     -6644.9627    
     65300  -3305593.5     -3305621.1      27.618391      535.50169     -2281.8566    
     65400  -3305593.3     -3305622.3      29.033074      562.93142     -2470.5092    
     65500  -3305593.1     -3305622.1      28.971711      561.74163     -4160.7847    
     65600  -3305592.8     -3305622.5      29.681279      575.49967     -529.99895    
     65700  -3305592.4     -3305620.8      28.401916      550.69369     -4218.2733    
     65800  -3305591.9     -3305621.1      29.219495      566.54599      145.55614    
     65900  -3305591.4     -3305619.2      27.78279       538.68926     -2528.5938    
     66000  -3305590.9     -3305620.7      29.742275      576.68233     -3505.7897    
     66100  -3305590.5     -3305619.2      28.789845      558.21538     -1283.8123    
     66200  -3305590.1     -3305619.8      29.681116      575.4965      -2653.8755    
     66300  -3305589.9     -3305619.2      29.313505      568.36879     -5754.4674    
     66400  -3305589.8     -3305618.7      28.974731      561.80019     -2222.6626    
     66500  -3305589.7     -3305617.9      28.222515      547.21524     -610.67861    
     66600  -3305589.8     -3305619.7      29.951367      580.73649     -1314.8843    
     66700  -3305590       -3305619.8      29.837267      578.52416     -1204.3168    
     66800  -3305590.3     -3305620        29.700856      575.87926     -5667.0391    
     66900  -3305590.8     -3305619.9      29.101507      564.25828     -5503.1533    
     67000  -3305591.4     -3305619.4      27.952622      541.9822      -3172.3258    
     67100  -3305592.1     -3305621.7      29.559016      573.12906     -2979.0059    
     67200  -3305592.8     -3305621        28.170487      546.20644     -5893.7858    
     67300  -3305593.4     -3305622        28.649834      555.50065     -5147.4717    
     67400  -3305593.7     -3305621.9      28.133849      545.49605     -5393.6641    
     67500  -3305593.9     -3305621.8      27.917797      541.30696     -5018.4798    
     67600  -3305593.9     -3305621.3      27.412491      531.50941      975.17929    
     67700  -3305593.9     -3305622        28.02274       543.34173     -4886.9657    
     67800  -3305593.9     -3305622.3      28.395198      550.56344     -1554.2774    
     67900  -3305594       -3305622.4      28.399454      550.64597     -2454.5267    
     68000  -3305594       -3305624.1      30.147452      584.53845     -3395.7367    
     68100  -3305594       -3305622        28.001302      542.92606     -3509.2116    
     68200  -3305594.1     -3305623.3      29.175306      565.6892      -2567.8336    
     68300  -3305594.2     -3305621.7      27.524802      533.68705     -4758.9387    
     68400  -3305594.4     -3305622.3      27.920053      541.3507      -18.855868    
     68500  -3305594.5     -3305622.4      27.83232       539.64961     -4398.522     
     68600  -3305594.7     -3305624.7      29.967956      581.05814     -2007.5658    
     68700  -3305595       -3305623.6      28.677391      556.03496     -2653.4979    
     68800  -3305595.2     -3305623.4      28.225769      547.27833     -4487.5447    
     68900  -3305595.4     -3305623.4      27.99349       542.77459     -4356.6683    
     69000  -3305595.7     -3305622.5      26.780613      519.25775     -2558.4032    
     69100  -3305596       -3305623.6      27.610394      535.34663     -2872.1826    
     69200  -3305596.3     -3305623.1      26.745146      518.57007     -2260.1696    
     69300  -3305596.7     -3305622.6      25.927528      502.717       -4919.4982    
     69400  -3305597       -3305623.7      26.681462      517.33528     -5203.8393    
     69500  -3305597.3     -3305623.7      26.410463      512.08078      7.4091325    
     69600  -3305597.6     -3305623.9      26.300602      509.95065     -6428.5357    
     69700  -3305597.8     -3305625.8      27.99858       542.87329     -2986.2072    
     69800  -3305597.9     -3305624.1      26.142909      506.8931      -2928.5222    
     69900  -3305598       -3305625.4      27.367224      530.63172     -3501.2385    
     70000  -3305598       -3305623.9      25.848164      501.17819     -4520.8597    
     70100  -3305597.9     -3305623.9      26.016816      504.44824     -1855.3031    
     70200  -3305597.6     -3305625.7      28.058479      544.0347      -4070.3267    
     70300  -3305597.2     -3305625.3      28.082369      544.49789     -617.78824    
     70400  -3305596.6     -3305623.2      26.571821      515.20942     -1544.7045    
     70500  -3305595.9     -3305622        26.040776      504.91281     -6854.2217    
     70600  -3305595.3     -3305623.6      28.320105      549.10744     -949.50035    
     70700  -3305594.7     -3305622.3      27.665859      536.42205     -2744.4151    
     70800  -3305594.3     -3305623.4      29.120965      564.63556     -3605.1489    
     70900  -3305594       -3305622.2      28.192312      546.62961      97.945446    
     71000  -3305593.9     -3305623.8      29.900511      579.75042     -2621.3791    
     71100  -3305593.9     -3305621.9      28.027882      543.44143     -3349.6416    
     71200  -3305593.9     -3305622.7      28.757627      557.59068     -4351.6279    
     71300  -3305594.1     -3305623.2      29.116102      564.54127     -1967.6504    
     71400  -3305594.4     -3305620.5      26.124117      506.52873     -3159.0953    
     71500  -3305594.6     -3305622        27.322713      529.76868     -2599.5021    
     71600  -3305595       -3305622.7      27.770081      538.44285     -5315.0509    
     71700  -3305595.3     -3305621        25.66131       497.55522     -3818.2266    
     71800  -3305595.7     -3305623        27.262768      528.6064      -3756.9883    
     71900  -3305596.1     -3305624.6      28.545488      553.47747     -3495.0387    
     72000  -3305596.5     -3305625.6      29.151377      565.22523     -5025.189     
     72100  -3305596.8     -3305623.4      26.566762      515.11131     -5292.4742    
     72200  -3305597.1     -3305624.5      27.403363      531.33244     -5675.108     
     72300  -3305597.3     -3305624.2      26.884815      521.27814     -5256.9914    
     72400  -3305597.5     -3305624.2      26.758072      518.82069     -3226.9856    
     72500  -3305597.6     -3305624.1      26.500149      513.81974     -5615.8877    
     72600  -3305597.7     -3305623.5      25.82953       500.8169      -1984.4041    
     72700  -3305597.7     -3305624.7      27.025732      524.01044     -3268.4272    
     72800  -3305597.7     -3305625.2      27.489905      533.01043     -3267.1221    
     72900  -3305597.6     -3305624.3      26.697046      517.63743     -4618.1942    
     73000  -3305597.5     -3305624.6      27.137872      526.18474     -2432.3047    
     73100  -3305597.2     -3305622.8      25.672916      497.78025     -5002.1032    
     73200  -3305596.7     -3305624.6      27.928919      541.5226      -3797.635     
     73300  -3305596.2     -3305623.9      27.700981      537.10305     -3419.9607    
     73400  -3305595.7     -3305624.6      28.954847      561.41465     -2661.985     
     73500  -3305595.2     -3305621.8      26.59487       515.65631     -4646.3307    
     73600  -3305594.8     -3305623.1      28.304964      548.81385     -4675.1655    
     73700  -3305594.5     -3305621.1      26.632751      516.3908      -2466.5431    
     73800  -3305594.2     -3305621.6      27.361632      530.5233      -5051.4076    
     73900  -3305594       -3305622.5      28.481465      552.23609     -3591.8315    
     74000  -3305593.9     -3305623.4      29.479476      571.58685     -3973.2857    
     74100  -3305593.9     -3305621.1      27.177403      526.95123     -4475.798     
     74200  -3305594.1     -3305621.3      27.206103      527.50771     -3428.6517    
     74300  -3305594.4     -3305623.5      29.040369      563.07285     -3975.2013    
     74400  -3305594.9     -3305622.1      27.253827      528.43304     -4155.1726    
     74500  -3305595.4     -3305624        28.6656        555.80635     -4486.1986    
     74600  -3305595.9     -3305623.7      27.84553       539.90575     -5011.9744    
     74700  -3305596.4     -3305624.1      27.667328      536.45054     -4300.1542    
     74800  -3305596.9     -3305623.9      27.037397      524.23661     -2507.6794    
     74900  -3305597.2     -3305624.9      27.665654      536.41808     -6772.6833    
     75000  -3305597.6     -3305624.5      26.885248      521.28655     -3468.4929    
     75100  -3305597.9     -3305624.8      26.911235      521.79041     -1255.8486    
     75200  -3305598.1     -3305624.5      26.355462      511.01435     -6566.2725    
     75300  -3305598.3     -3305624.4      26.150883      507.04771     -1885.9953    
     75400  -3305598.4     -3305625.6      27.200546      527.39995     -3699.0937    
     75500  -3305598.6     -3305625.6      27.000074      523.51293     -2423.7476    
     75600  -3305598.6     -3305623.8      25.166453      487.96027     -708.3705     
     75700  -3305598.7     -3305625.5      26.788679      519.41414     -5901.8961    
     75800  -3305598.7     -3305625.6      26.962244      522.77945     -5132.1663    
     75900  -3305598.6     -3305623.8      25.18054       488.23343     -3307.5419    
     76000  -3305598.5     -3305625.2      26.671164      517.1356      -173.73155    
     76100  -3305598.4     -3305624.6      26.209507      508.18439     -3235.1551    
     76200  -3305598.2     -3305625.7      27.495677      533.12235     -2124.9251    
     76300  -3305598       -3305624.6      26.627422      516.28748     -2162.5613    
     76400  -3305597.6     -3305622.3      24.755222      479.98679     -5553.1652    
     76500  -3305597       -3305625.2      28.144876      545.70987     -3112.7762    
     76600  -3305596.3     -3305624.1      27.825686      539.521       -1528.8978    
     76700  -3305595.5     -3305623.5      28.006322      543.02341     -5773.482     
     76800  -3305594.9     -3305621.9      26.985376      523.22795     -4536.2446    
     76900  -3305594.5     -3305622.5      28.023933      543.36487     -1669.5585    
     77000  -3305594.2     -3305623.6      29.337738      568.83865     -3281.4806    
     77100  -3305594.2     -3305623        28.80443       558.49817     -3044.5564    
     77200  -3305594.3     -3305623        28.678202      556.05069     -1150.5608    
     77300  -3305594.5     -3305622.2      27.637668      535.87545     -7.5976447    
     77400  -3305594.9     -3305623        28.185377      546.49515     -1832.19      
     77500  -3305595.3     -3305622.1      26.834115      520.29511     -2539.3751    
     77600  -3305595.7     -3305625        29.311554      568.33096     -1992.3671    
     77700  -3305596.2     -3305624.8      28.613184      554.79004     -4680.4464    
     77800  -3305596.6     -3305624        27.325742      529.82742      63.157017    
     77900  -3305597.1     -3305625.1      28.063691      544.13575     -3871.178     
     78000  -3305597.4     -3305625.7      28.300065      548.71886     -1712.9241    
     78100  -3305597.8     -3305625.3      27.481458      532.84665     -3707.4671    
     78200  -3305598.1     -3305626.5      28.372861      550.13035      3315.3812    
     78300  -3305598.4     -3305624.5      26.028684      504.67835     -5786.286     
     78400  -3305598.7     -3305625.3      26.599482      515.74574     -1459.8182    
     78500  -3305598.9     -3305624.2      25.283424      490.22828     -2364.9758    
     78600  -3305599.1     -3305627.7      28.629421      555.10487     -3144.3963    
     78700  -3305599.3     -3305625.6      26.267007      509.29928     -275.48713    
     78800  -3305599.5     -3305624.2      24.670992      478.35364     -3815.9583    
     78900  -3305599.7     -3305627.3      27.54565       534.09129     -4181.5231    
     79000  -3305599.9     -3305626.8      26.870051      520.99188     -782.91697    
     79100  -3305600.1     -3305627.7      27.551266      534.20018     -3199.4905    
     79200  -3305600.3     -3305627.8      27.474013      532.70229     -2126.8172    
     79300  -3305600.5     -3305625.5      25.020326      485.12697     -4245.7471    
     79400  -3305600.6     -3305626        25.355117      491.61836     -2773.0512    
     79500  -3305600.7     -3305627.6      26.866164      520.91651     -2379.074     
     79600  -3305600.8     -3305625.9      25.039612      485.50092     -1902.7779    
     79700  -3305600.9     -3305626.7      25.871941      501.63922     -2933.5981    
     79800  -3305600.8     -3305626.6      25.736019      499.00379     -4982.0104    
     79900  -3305600.7     -3305626.9      26.221516      508.41723     -1752.4992    
     80000  -3305600.5     -3305626.3      25.784186      499.9377      -6175.6923    
     80100  -3305600.2     -3305628.6      28.434858      551.33242      879.57353    
     80200  -3305599.8     -3305627.8      28.044347      543.76068     -5652.9618    
     80300  -3305599.3     -3305626.3      26.918288      521.92717     -630.27517    
     80400  -3305598.9     -3305623.6      24.73948       479.68156     -1411.1228    
     80500  -3305598.5     -3305624.9      26.490174      513.62632     -4306.8455    
     80600  -3305598.1     -3305625.5      27.376172      530.80521     -1455.5979    
     80700  -3305597.8     -3305624.8      26.984845      523.21766     -1747.8521    
     80800  -3305597.7     -3305624.6      26.912893      521.82257     -2756.8591    
     80900  -3305597.6     -3305625.2      27.636337      535.84964     -2628.754     
     81000  -3305597.6     -3305624.5      26.881123      521.20657     -4364.0927    
     81100  -3305597.7     -3305623.8      26.085552      505.78098     -1942.5996    
     81200  -3305597.9     -3305626.1      28.204384      546.86369     -1094.1443    
     81300  -3305598.3     -3305624.6      26.314459      510.21934     -5609.78      
     81400  -3305598.8     -3305626.6      27.857713      540.14197     -885.20744    
     81500  -3305599.3     -3305624.8      25.442367      493.31006     -4040.7844    
     81600  -3305599.9     -3305625.9      26.013265      504.37938     -5379.4834    
     81700  -3305600.4     -3305626.3      25.860394      501.41532     -3376.6184    
     81800  -3305600.8     -3305624.9      24.103165      467.34386     -2771.5068    
     81900  -3305601.1     -3305625.5      24.475877      474.57049     -4951.8193    
     82000  -3305601.2     -3305625.8      24.601968      477.0153      -6063.3518    
     82100  -3305601.2     -3305627.6      26.35004       510.90922     -4703.6715    
     82200  -3305601.2     -3305626.6      25.39472       492.38623     -2176.9177    
     82300  -3305601.2     -3305628.1      26.932687      522.20635     -3258.7603    
     82400  -3305601.1     -3305626.3      25.174114      488.10883     -4533.1859    
     82500  -3305601.1     -3305626.8      25.706874      498.43868      531.61186    
     82600  -3305601       -3305626.7      25.648724      497.31119     -3854.6806    
     82700  -3305601       -3305626.4      25.398465      492.45884     -3959.6905    
     82800  -3305600.9     -3305627.6      26.68247       517.35481     -2779.2993    
     82900  -3305600.8     -3305626.5      25.740754      499.09559     -4149.706     
     83000  -3305600.7     -3305625.7      24.985833      484.45819     -3039.9075    
     83100  -3305600.5     -3305626        25.485036      494.13739     -3910.278     
     83200  -3305600.3     -3305626.8      26.523439      514.27131     -6099.6251    
     83300  -3305600.1     -3305625.3      25.204005      488.68838     -2576.9265    
     83400  -3305599.9     -3305626.9      26.984184      523.20485     -4278.404     
     83500  -3305599.6     -3305627.5      27.934588      541.63252     -2271.0728    
     83600  -3305599.2     -3305625.3      26.048055      505.05393     -3005.9825    
     83700  -3305598.8     -3305625.1      26.317075      510.27006     -1984.689     
     83800  -3305598.3     -3305625.8      27.542797      534.03597     -2238.2897    
     83900  -3305597.7     -3305625.3      27.594841      535.04507     -3956.2108    
     84000  -3305597.3     -3305623.4      26.06          505.28554      1801.0779    
     84100  -3305597       -3305624.5      27.461883      532.4671      -2392.2486    
     84200  -3305596.8     -3305624.3      27.453787      532.31011     -3879.5053    
     84300  -3305596.9     -3305625.4      28.590679      554.35367     -185.78761    
     84400  -3305597       -3305623.8      26.761516      518.88747     -2910.535     
     84500  -3305597.4     -3305624.7      27.321089      529.73721     -1613.2824    
     84600  -3305597.8     -3305624.3      26.414434      512.15778     -4185.2065    
     84700  -3305598.4     -3305625.5      27.041033      524.30711     -5197.5251    
     84800  -3305599.1     -3305624.2      25.162991      487.89317     -2653.4135    
     84900  -3305599.6     -3305625.5      25.954266      503.23544     -5667.4422    
     85000  -3305599.9     -3305625.4      25.45416       493.53872     -3497.9985    
     85100  -3305600.2     -3305623.9      23.750281      460.50168     -4642.9058    
     85200  -3305600.3     -3305626.4      26.064434      505.37153     -6094.9822    
     85300  -3305600.4     -3305626.3      25.876356      501.72482     -2551.9494    
     85400  -3305600.5     -3305626.3      25.827452      500.77661     -4299.5725    
     85500  -3305600.5     -3305625.7      25.18805       488.37903     -5937.0578    
     85600  -3305600.6     -3305626.4      25.806117      500.36292     -936.14848    
     85700  -3305600.7     -3305626        25.383079      492.16051     -3066.1834    
     85800  -3305600.8     -3305626.4      25.585979      496.0946      -7377.2658    
     85900  -3305600.9     -3305626.4      25.497841      494.38567     -368.73967    
     86000  -3305601       -3305626.5      25.526691      494.94505     -3597.7042    
     86100  -3305601.1     -3305626.9      25.787559      500.00311     -6263.3117    
     86200  -3305601.3     -3305625.9      24.555854      476.12119     -4058.2976    
     86300  -3305601.5     -3305626.3      24.810662      481.06174     -4056.5026    
     86400  -3305601.8     -3305627.4      25.606809      496.49849     -3665.9842    
     86500  -3305602.2     -3305627.2      25.066695      486.02604     -5003.0314    
     86600  -3305602.6     -3305627.7      25.099802      486.66797     -6343.3646    
[...]
    228800  -3305627.1     -3305643.1      16.048373      311.16695     -680.23921    
    228900  -3305627.2     -3305641.9      14.711859      285.25287      65.002325    
    229000  -3305627.3     -3305642.8      15.481849      300.18245     -2247.0076    
    229100  -3305627.4     -3305642.6      15.203649      294.78833      939.09435    
    229200  -3305627.5     -3305642.3      14.834401      287.62888      464.39971    
    229300  -3305627.6     -3305642        14.414733      279.4918       945.82533    
    229400  -3305627.6     -3305642.4      14.811777      287.19021     -994.56654    
    229500  -3305627.6     -3305642.4      14.807108      287.09967      1031.4599    
    229600  -3305627.6     -3305642.7      15.132927      293.41709     -1373.7574    
    229700  -3305627.6     -3305642.3      14.721868      285.44693      876.77362    
    229800  -3305627.4     -3305643.1      15.645783      303.36102      1798.4511    
    229900  -3305627.2     -3305642.4      15.254194      295.76837     -1217.978     
    230000  -3305626.9     -3305642.3      15.423485      299.05081      2080.7229    
    230100  -3305626.6     -3305642.5      15.916876      308.61731     -1650.8887    
    230200  -3305626.3     -3305642.1      15.79579       306.26955      246.19648    
    230300  -3305626       -3305641.8      15.804121      306.43108      228.73522    
    230400  -3305625.8     -3305641.3      15.55496       301.60002      1240.9231    
    230500  -3305625.6     -3305641.7      16.074267      311.66903     -660.35225    
    230600  -3305625.5     -3305641.8      16.319937      316.43241     -1583.0536    
    230700  -3305625.4     -3305641.6      16.19738       314.05611      183.98196    
    230800  -3305625.4     -3305642.3      16.824251      326.21071     -2907.4301    
    230900  -3305625.5     -3305642.2      16.689665      323.60118     -754.61717    
    231000  -3305625.6     -3305642.1      16.467761      319.2986      -2398.2315    
    231100  -3305625.8     -3305642.6      16.817579      326.08133      1752.672     
    231200  -3305626       -3305641.4      15.404992      298.69223      418.85209    
    231300  -3305626.4     -3305642.2      15.890298      308.10199      312.69784    
    231400  -3305626.6     -3305641.9      15.229904      295.2974       210.21731    
    231500  -3305626.9     -3305641.2      14.31333       277.52567     -481.14868    
    231600  -3305627.2     -3305642.5      15.294861      296.55687      853.52598    
    231700  -3305627.4     -3305642.5      15.092045      292.62441     -301.3129     
    231800  -3305627.5     -3305643        15.489281      300.32656      623.83944    
    231900  -3305627.5     -3305642        14.485752      280.86882     -881.1914     
    232000  -3305627.6     -3305643.1      15.574634      301.98149      2495.4333    
    232100  -3305627.6     -3305642.8      15.200284      294.7231      -96.928681    
    232200  -3305627.6     -3305643.2      15.651725      303.47623     -317.80673    
    232300  -3305627.5     -3305642        14.538998      281.9012      -11.552808    
    232400  -3305627.4     -3305643.2      15.82798       306.89369     -7.5690746    
    232500  -3305627.3     -3305642.3      14.996059      290.76331     -527.80455    
    232600  -3305627.2     -3305642.5      15.279777      296.26441     -1014.32      
    232700  -3305627.1     -3305642.5      15.401333      298.62129      1760.6308    
    232800  -3305626.9     -3305641.7      14.77476       286.47247     -3636.6032    
    232900  -3305626.8     -3305641.9      15.086683      292.52045      2714.5595    
    233000  -3305626.6     -3305641.6      14.938412      289.64558     -974.2235     
    233100  -3305626.5     -3305642.1      15.564753      301.7899       444.90675    
    233200  -3305626.4     -3305642.2      15.84022       307.13102      1408.6173    
    233300  -3305626.3     -3305642.1      15.762634      305.62668     -1676.3981    
    233400  -3305626.2     -3305642.3      16.09566       312.08383      1811.6119    
    233500  -3305626.2     -3305641.4      15.183346      294.39468     -408.17332    
    233600  -3305626.2     -3305642.3      16.17884       313.69663     -2035.512     
    233700  -3305626.2     -3305641.5      15.335261      297.34021      410.66407    
    233800  -3305626.1     -3305641.8      15.652614      303.49347      1347.8346    
    233900  -3305626.1     -3305641.6      15.430287      299.18269      555.5545     
    234000  -3305626.1     -3305642.3      16.154295      313.22071     -2458.6316    
    234100  -3305626.3     -3305642.2      15.939329      309.05266      3492.0326    
    234200  -3305626.4     -3305642.2      15.802236      306.39452     -808.56866    
    234300  -3305626.5     -3305642.3      15.834476      307.01964     -1879.3212    
    234400  -3305626.7     -3305642.6      15.857243      307.46108      72.849488    
    234500  -3305626.9     -3305642.2      15.29891       296.63538     -640.65961    
    234600  -3305627.1     -3305642.5      15.470636      299.96504     -2288.6959    
    234700  -3305627.2     -3305642.1      14.835976      287.65942      397.61155    
    234800  -3305627.4     -3305643.5      16.074171      311.66716      2074.4805    
    234900  -3305627.5     -3305643        15.496866      300.47361      99.952431    
    235000  -3305627.6     -3305643.2      15.589875      302.27699      3205.1529    
    235100  -3305627.7     -3305643.1      15.387049      298.34435      335.34972    
    235200  -3305627.7     -3305643.1      15.306277      296.77823     -667.54049    
    235300  -3305627.7     -3305642.7      14.920458      289.29746     -409.12843    
    235400  -3305627.7     -3305643.1      15.380365      298.21474     -1303.4857    
    235500  -3305627.7     -3305642.1      14.48232       280.80227     -1292.3949    
    235600  -3305627.5     -3305642.2      14.650723      284.06748      625.95993    
    235700  -3305627.4     -3305642.8      15.415402      298.89408     -60.915207    
    235800  -3305627.2     -3305641.7      14.573721      282.57447     -1079.3643    
    235900  -3305626.9     -3305641.1      14.241018      276.12357      794.3864     
    236000  -3305626.6     -3305642.7      16.026046      310.73406      2041.4299    
    236100  -3305626.3     -3305641.8      15.502617      300.58512     -1294.0601    
    236200  -3305626.1     -3305641.2      15.153665      293.81919      1401.7875    
    236300  -3305625.8     -3305641.4      15.585245      302.18722      922.87328    
    236400  -3305625.7     -3305640.6      14.900871      288.91768      766.37602    
    236500  -3305625.6     -3305641.1      15.480632      300.15885     -1513.7978    
    236600  -3305625.6     -3305642        16.423797      318.44617      1360.9308    
    236700  -3305625.6     -3305641.2      15.606479      302.59894     -567.97633    
    236800  -3305625.7     -3305642        16.273809      315.53801      3861.962     
    236900  -3305625.7     -3305640.9      15.191055      294.54415     -1059.6527    
    237000  -3305625.9     -3305641.5      15.606361      302.59666      298.12276    
    237100  -3305626       -3305641.8      15.872696      307.7607      -999.0283     
    237200  -3305626.1     -3305643        16.819958      326.12747     -188.70999    
    237300  -3305626.3     -3305642.1      15.771761      305.80365     -609.3128     
    237400  -3305626.5     -3305642.2      15.727568      304.94678     -1710.9127    
    237500  -3305626.6     -3305642.5      15.854648      307.41076     -277.78596    
    237600  -3305626.8     -3305642.1      15.311012      296.87003      1243.2334    
    237700  -3305626.9     -3305642.4      15.477633      300.10071      91.944758    
    237800  -3305627       -3305643.2      16.264827      315.36385     -116.15619    
    237900  -3305627.1     -3305642.2      15.112288      293.01692     -730.90573    
    238000  -3305627.1     -3305641.8      14.687036      284.77156      1630.613     
    238100  -3305627       -3305641.3      14.234788      276.00279      38.092512    
    238200  -3305627       -3305642.4      15.321787      297.07895     -1911.6571    
    238300  -3305627       -3305643        16.040178      311.00806      580.57159    
    238400  -3305627       -3305642.1      15.072562      292.24665      472.86841    
    238500  -3305627       -3305642.5      15.500831      300.55049      61.549611    
    238600  -3305626.9     -3305643        16.021371      310.64342     -302.96301    
    238700  -3305626.9     -3305642.4      15.44814       299.52885      283.56239    
    238800  -3305626.9     -3305642.5      15.640674      303.26196     -2070.1582    
    238900  -3305626.9     -3305641.3      14.447725      280.1315       2895.654     
    239000  -3305626.8     -3305642.2      15.46814       299.91665     -1095.8617    
    239100  -3305626.7     -3305642.6      15.876958      307.84333      2354.0497    
    239200  -3305626.6     -3305643.2      16.569586      321.27293     -176.33683    
    239300  -3305626.5     -3305642.2      15.63954       303.23996      2197.795     
    239400  -3305626.5     -3305641        14.546809      282.05267     -1460.1671    
    239500  -3305626.6     -3305641.9      15.375126      298.11315      698.68885    
    239600  -3305626.4     -3305642.4      16.026085      310.73482      765.80462    
    239700  -3305626.3     -3305641.8      15.413668      298.86046      40.553011    
    239800  -3305626.3     -3305641.9      15.666882      303.7701      -521.02475    
    239900  -3305626.2     -3305642.8      16.561188      321.11008     -2154.3148    
    240000  -3305626.1     -3305642.8      16.728251      324.34932     -465.52371    
    240100  -3305626.1     -3305642.2      16.12422       312.63758     -864.00661    
    240200  -3305626.1     -3305642        15.949866      309.25697      1027         
    240300  -3305626.1     -3305641.9      15.766436      305.7004      -54.360622    
    240400  -3305626.1     -3305642.8      16.684688      323.50468      1094.5454    
    240500  -3305626.2     -3305641.9      15.662115      303.67768     -2345.5569    
    240600  -3305626.4     -3305642.4      15.932565      308.92152      2209.583     
    240700  -3305626.6     -3305642.8      16.191222      313.9367      -1463.8166    
    240800  -3305626.8     -3305642        15.214643      295.00151     -1013.5435    
    240900  -3305627.1     -3305642.9      15.801685      306.38384     -348.28183    
    241000  -3305627.3     -3305642.6      15.330529      297.24845      2821.2855    
    241100  -3305627.5     -3305642.6      15.118072      293.12907     -1814.1653    
    241200  -3305627.7     -3305642.7      15.062169      292.04514      951.64584    
    241300  -3305627.8     -3305642.7      14.838069      287.69999     -1123.8316    
    241400  -3305628       -3305643        15.056581      291.93679      1790.2268    
    241500  -3305628       -3305643        14.994934      290.7415       1652.4812    
    241600  -3305628.1     -3305642.9      14.854616      288.02083     -696.6899     
    241700  -3305628.1     -3305643.5      15.36754       297.96608      346.08035    
    241800  -3305628.1     -3305643.9      15.794262      306.23993      1135.7863    
    241900  -3305628       -3305643        14.997611      290.79341     -2587.84      
    242000  -3305627.8     -3305642.9      15.133159      293.42159      1638.5778    
    242100  -3305627.5     -3305642.3      14.767096      286.32387     -2051.0321    
    242200  -3305627.2     -3305642.4      15.241929      295.53057      793.01313    
    242300  -3305626.7     -3305642        15.35232       297.67097     -1306.0107    
    242400  -3305626.3     -3305642.9      16.635414      322.54928      2066.629     
    242500  -3305626       -3305641.2      15.240189      295.49682      592.21493    
    242600  -3305625.8     -3305641.8      15.978463      309.81146     -348.11014    
    242700  -3305625.7     -3305641.7      16.015829      310.53596      2443.4531    
    242800  -3305625.7     -3305640.9      15.217138      295.04987     -211.91578    
    242900  -3305625.7     -3305642.2      16.518065      320.27397     -135.05461    
    243000  -3305625.8     -3305641.1      15.264792      295.97386      397.39237    
    243100  -3305625.8     -3305642.2      16.364466      317.29578      2130.7941    
    243200  -3305625.9     -3305641.9      15.996208      310.15552     -997.91759    
    243300  -3305626.1     -3305641.8      15.688183      304.18311      1207.8083    
    243400  -3305626.2     -3305641.7      15.510241      300.73295      1622.4686    
    243500  -3305626.4     -3305642.7      16.294414      315.93752     -533.21552    
    243600  -3305626.6     -3305641.3      14.666465      284.37272     -1198.99      
    243700  -3305626.8     -3305641.1      14.302281      277.31144      2359.4774    
    243800  -3305627.1     -3305642.5      15.400739      298.60978      476.96953    
    243900  -3305627.2     -3305641.7      14.547606      282.06811     -385.15301    
    244000  -3305627.3     -3305642.8      15.468726      299.928        841.27638    
    244100  -3305627.5     -3305642.6      15.149386      293.73622      303.98179    
    244200  -3305627.6     -3305642        14.456847      280.30836      561.0399     
    244300  -3305627.7     -3305642.6      14.877006      288.45495      1747.6577    
    244400  -3305627.8     -3305643.1      15.353218      297.68839     -1404.0843    
    244500  -3305627.9     -3305643.2      15.350066      297.62727      895.2249     
    244600  -3305627.9     -3305643.5      15.606947      302.60801     -1070.5398    
    244700  -3305627.9     -3305642.9      15.002204      290.88245      523.19413    
    244800  -3305628       -3305642.4      14.385684      278.92855      3267.2585    
    244900  -3305628       -3305642.9      14.898284      288.86752     -2828.7471    
    245000  -3305628       -3305642.7      14.682787      284.68918      1963.5878    
    245100  -3305627.8     -3305643.1      15.311045      296.87068      1143.1437    
    245200  -3305627.6     -3305643.3      15.652655      303.49425     -996.8834     
    245300  -3305627.4     -3305643.4      16.048824      311.1757       1396.9711    
    245400  -3305627.1     -3305642        14.857068      288.06837      26.027299    
    245500  -3305626.9     -3305642.8      15.916404      308.60816     -1469.349     
    245600  -3305626.6     -3305642.3      15.716229      304.72692     -1627.9013    
    245700  -3305626.4     -3305642.5      16.0935        312.04193      1775.0573    
    245800  -3305626.2     -3305642.7      16.428668      318.54062     -2016.9201    
    245900  -3305626.1     -3305641.9      15.782586      306.01352     -2477.6439    
    246000  -3305625.9     -3305642.1      16.178025      313.68083      485.69751    
    246100  -3305625.8     -3305641.8      16.033139      310.87158      619.09734    
    246200  -3305625.8     -3305642        16.184011      313.79689      805.89235    
    246300  -3305625.8     -3305641.5      15.700185      304.41584     -729.86349    
    246400  -3305625.8     -3305641.8      15.960237      309.45806      584.88425    
    246500  -3305625.9     -3305641.5      15.602433      302.52049     -463.17737    
    246600  -3305626       -3305641.1      15.014067      291.11248     -981.55125    
    246700  -3305626.2     -3305642.2      16.014788      310.51578      1957.3208    
    246800  -3305626.5     -3305642        15.485972      300.26238      346.03413    
    246900  -3305626.8     -3305644        17.197925      333.45599     -227.86844    
    247000  -3305627.1     -3305643.4      16.34121       316.84487     -569.54564    
    247100  -3305627.4     -3305642.7      15.245797      295.60556     -405.12311    
    247200  -3305627.7     -3305643.6      15.929921      308.87025      1526.9597    
    247300  -3305627.9     -3305643.4      15.4829        300.20282     -3042.021     
    247400  -3305628.1     -3305642.7      14.671944      284.47894      108.61407    
    247500  -3305628.1     -3305642.9      14.846233      287.8583       1645.698     
    247600  -3305628.1     -3305642        13.860063      268.73712     -1207.2227    
    247700  -3305628       -3305642.9      14.892481      288.75501      205.10155    
    247800  -3305628       -3305642.6      14.614451      283.3642      -480.54679    
    247900  -3305627.9     -3305643.2      15.279372      296.25656      1526.3044    
    248000  -3305627.7     -3305643.1      15.35728       297.76714     -2044.9756    
    248100  -3305627.6     -3305643.1      15.516368      300.85175      1124.7276    
    248200  -3305627.4     -3305642.5      15.032168      291.46343     -891.6208     
    248300  -3305627.3     -3305643        15.645806      303.36146      2098.4723    
    248400  -3305627.2     -3305642.7      15.505017      300.63165      825.09204    
    248500  -3305627.1     -3305642.7      15.581825      302.12092     -185.05381    
    248600  -3305627       -3305642.7      15.751708      305.41482      534.1526     
    248700  -3305626.9     -3305641.5      14.595261      282.99211     -1041.3449    
    248800  -3305626.8     -3305641.7      14.856359      288.05462      882.07029    
    248900  -3305626.7     -3305641.6      14.877506      288.46466     -246.52955    
    249000  -3305626.7     -3305641.5      14.845424      287.8426      -141.33971    
    249100  -3305626.6     -3305641.8      15.17441       294.22141      2297.6895    
    249200  -3305626.6     -3305641.6      15.029415      291.41007     -565.53633    
    249300  -3305626.5     -3305642.7      16.256132      315.19526     -896.98583    
    249400  -3305626.5     -3305642        15.592919      302.33602      226.61736    
    249500  -3305626.5     -3305642.5      16.057004      311.33432      366.30595    
    249600  -3305626.4     -3305641.7      15.300233      296.66104      860.49293    
    249700  -3305626.4     -3305642.3      15.917192      308.62345      206.46378    
    249800  -3305626.4     -3305641.6      15.187946      294.48386      607.49887    
    249900  -3305626.5     -3305641.7      15.261218      295.90457     -172.885      
    250000  -3305626.5     -3305642.1      15.613354      302.73224      1337.7401    
Loop time of 4371.88 on 72 procs for 50000 steps with 400 atoms

Performance: 1.976 ns/day, 12.144 hours/ns, 11.437 timesteps/s, 4.575 katom-step/s
90.8% CPU use with 72 MPI tasks x 1 OpenMP threads

MPI task timing breakdown:
Section |  min time  |  avg time  |  max time  |%varavg| %total
---------------------------------------------------------------
Pair    | 2249.9     | 3287.4     | 4056.1     | 755.8 | 75.19
Bond    | 0.017122   | 0.034541   | 0.05292    |   4.4 |  0.00
Neigh   | 0.040537   | 0.052873   | 0.068942   |   2.7 |  0.00
Comm    | 311.82     | 1080.5     | 2118.2     |1318.4 | 24.72
Output  | 1.4361     | 1.4385     | 1.5777     |   1.4 |  0.03
Modify  | 1.7692     | 1.8669     | 1.9667     |   2.6 |  0.04
Other   |            | 0.5305     |            |       |  0.01

Nlocal:        5.55556 ave           8 max           3 min
Histogram: 2 0 13 0 21 0 19 0 13 4
Nghost:        392.194 ave         399 max         384 min
Histogram: 3 3 5 3 15 9 12 6 12 4
Neighs:              0 ave           0 max           0 min
Histogram: 72 0 0 0 0 0 0 0 0 0
FullNghs:      491.528 ave         728 max         268 min
Histogram: 2 12 1 20 1 17 2 11 2 4

Total # of neighbors = 35390
Ave neighs/atom = 88.475
Ave special neighs/atom = 0
Neighbor list builds = 1570
Dangerous builds = 0
unfix npt_equ


write_restart restart.equil
System init for write_restart ...
quit
