0/geom.data (written by ASE) 

440 	 atoms 
3  atom types
0.0      22.610974505009175  xlo xhi
0.0      22.610831249921134  ylo yhi
0.0       22.61081081313084  zlo zhi


Masses 

1            6.94000000    # Li_atom 
2           30.97376199    # P_atom 
3           32.06499999    # S_atom 

Atoms 

     1   0   2   0.0      10.610289849077779      11.809686235681315      17.011061102355256
     2   0   3   0.0      8.8798405957659146      12.901476876445294       16.94738096008636
     3   0   3   0.0      11.649026753621536      12.301934225264031      15.375234589634337
     4   0   3   0.0      11.804309020865043      11.903600622630549      18.691599048842281
     5   0   3   0.0      10.120600706259529      9.8350965108989197      16.922910777938341
     6   0   2   0.0      17.215898840159674      11.317242504295786      4.7079211618513401
     7   0   3   0.0      18.152750487009097      10.353431687299475      2.9738267221629746
     8   0   3   0.0       15.42665151622024       11.91495623499862      3.9651198064167166
     9   0   3   0.0      16.913711782655017      10.099662852162036      6.2566685190100504
    10   0   3   0.0      18.621027401100374      12.760640652636701      5.3673776124721826
    11   0   2   0.0      18.778733638504978      1.8190834914409346      17.671413539960994
    12   0   3   0.0      17.173955845166848      1.5427642453908799      18.962921271379233
    13   0   3   0.0      18.213081501035649      1.6039554152651823      15.683134874046948
    14   0   3   0.0      20.438421799146901      2.9427801444944826      18.251970514603197
    15   0   3   0.0      19.737882936636598    -0.03191435899878637      18.157513249937555
    16   0   2   0.0      12.611666822244359      22.375724637769483      4.5500349638412558
    17   0   3   0.0      14.406688194146176       22.54779116502208      3.5475756396623326
    18   0   3   0.0      11.756361088005615      20.996376299773669      3.2311796623129618
    19   0   3   0.0      13.332974744480872      21.950942187880877      6.3557343862012727
    20   0   3   0.0      10.495908621097238     0.23909465604080976      4.8438234215018063
    21   0   2   0.0      5.4185518392203376      11.112903778296724      4.3820166304553849
    22   0   3   0.0      4.3156973522223234      10.320375087163443      5.9345515949123113
    23   0   3   0.0      4.2810404565519216      10.602054889801014      2.6954100531894394
    24   0   3   0.0      5.7705349885815664       13.10842742786072      4.2419396336354813
    25   0   3   0.0      7.1618281385479152      9.9409069751955261      4.3026803256879536
    26   0   2   0.0       8.708769579222821      1.3942594099305452      14.994445341732391
    27   0   3   0.0      10.537791749450552      2.0360666111320036      15.652196617407128
    28   0   3   0.0      7.6310465793078768         2.7863695148479      13.752626665272478
    29   0   3   0.0      8.8066110173324663    0.046798776833181406      13.351662909009759
    30   0   3   0.0      7.6952336942055162     0.40769926301612658      16.451792621988005
    31   0   2   0.0      20.890620617249354      13.676472843151069      17.847953256648896
    32   0   3   0.0      20.593952818325697      12.085354869561341      19.139766534580254
    33   0   3   0.0      22.575133574763136      13.190865183667805       16.78247500069681
    34   0   3   0.0      19.524704156954492      13.752898755285509      16.376092385992017
    35   0   3   0.0      21.182270108873642      15.368693120745535       19.02251930373874
    36   0   2   0.0      3.8685363311233956      19.834540109066587      21.826234847322453
    37   0   3   0.0      5.7137618387095523      20.169765249915393       22.50769694911849
    38   0   3   0.0      2.5595598889591367      21.465685266803632       21.66329127422528
    39   0   3   0.0      4.4614942393836738      19.510535900374165      19.830869645196447
    40   0   3   0.0      2.6822589571140245      18.386774157477202      22.636267977270908
    41   0   2   0.0      2.2651055265231594      6.6143183016675611      20.534795593988779
    42   0   3   0.0      2.3970941516486652      7.6232511307918447      22.356351496186768
    43   0   3   0.0     0.83877491978645857      5.1218973004029156      20.706943593234172
    44   0   3   0.0      1.8560392081213402      7.8580230383564338      18.932197771908562
    45   0   3   0.0       4.241955700268206      5.8992561933302756      20.426323918757877
    46   0   2   0.0      16.181865549239621      5.0505235373441675      10.877175363355754
    47   0   3   0.0      15.180563559308091      4.0461399853736868      12.449007308653751
    48   0   3   0.0      17.829556110315767      3.8873086920688587      10.329333931303905
    49   0   3   0.0      15.073720494062655      5.3176353565497028      9.2481479789223631
    50   0   3   0.0       17.03538515642493      6.7143814560882173      11.658266488935316
    51   0   2   0.0      1.2267374823474355      7.5178157878539196      10.445433625377742
    52   0   3   0.0     0.53238772423813852      8.2418168160352039      12.223536869279094
    53   0   3   0.0      2.0757042285729921      5.7146113140913366       10.58280683699563
    54   0   3   0.0   -0.056197795320564209      7.3295549542312903      8.8871796923073827
    55   0   3   0.0      2.9091603057101176      8.5590234176511082      9.8207693917439212
    56   0   2   0.0     0.86380347817009351      19.418116689052862      13.107320088829661
    57   0   3   0.0   0.0097947542835573227      17.910287760362721        14.1269863053954
    58   0   3   0.0      2.8465659011226974      19.452970744760965      13.597715227993389
    59   0   3   0.0     0.45114423103499196      19.240246266449624      11.132817318151519
    60   0   3   0.0    0.023197681612583301      21.321658029990896      13.562203322091458
    61   0   2   0.0      18.550719714937209      18.089340303303231     0.86254765124907451
    62   0   3   0.0      20.569366599556325       17.53514961918037     0.77673204556574027
    63   0   3   0.0      17.982737981382218      19.380680307149781      2.5011621400643107
    64   0   3   0.0      18.727697531149129      19.947376404311012     -0.1256080193722367
    65   0   3   0.0      17.277319133270314      16.728952868660055     0.12222450164260937
    66   0   2   0.0      10.471739373561601      16.228033916545357     0.67338926345812133
    67   0   3   0.0      8.8508392757119054       17.08572843310613      1.3718180513716653
    68   0   3   0.0      11.634480605774595      14.313434453282696      1.3782102133491345
    69   0   3   0.0       9.971714012609679      14.414578077176666      22.351883371725432
    70   0   3   0.0      12.126598034362459      17.294552629766404     0.33572267145801737
    71   0   2   0.0      15.635840326187697      18.134271407475705      10.028331556085174
    72   0   3   0.0      16.778887167884342      16.361290894764334      9.7508529125088863
    73   0   3   0.0       16.75770686136277      19.585329597049768      11.023315643349138
    74   0   3   0.0      15.010822376380473      18.746151226387727      8.1559625431769778
    75   0   3   0.0       14.07768370399779      17.861460677458123      11.259563290035764
    76   0   2   0.0      10.418672415963901      11.657963331710294      9.6809788326640565
    77   0   3   0.0       8.795227552710827         12.976464978133      9.9377852479588036
    78   0   3   0.0      11.322168326694817      11.963396613668738      11.502351650913788
    79   0   3   0.0      10.186209140404078      9.7082832033999527      9.0638018055810115
    80   0   3   0.0      11.418311964279415      12.635938088847318      8.1778684370431307
    81   0   2   0.0      11.322825521983017      7.3683298810123725      2.9313728488677762
    82   0   3   0.0      11.011235200078286      8.9581170398869965      1.5658168332515816
    83   0   3   0.0      13.263865491547618      7.3565806446804265      3.6814286680244939
    84   0   3   0.0      10.270169660471586      7.3344986943461086      4.7199735997202721
    85   0   3   0.0       10.78420607262875      5.8554016309324632      1.6801640014854864
    86   0   2   0.0      13.929995373113544      18.019419422828275        17.7204301266346
    87   0   3   0.0      15.029460212690777      16.836407773833997      16.513417860457619
    88   0   3   0.0      11.953914357792577      17.277773091167017      18.070232117567972
    89   0   3   0.0      14.850156109991479       18.48965049653631      19.626710249689815
    90   0   3   0.0      13.966993749473586      19.884890348664218      16.876655824605237
    91   0   2   0.0      17.886036395277433      7.8393289073371752      20.000107360880993
    92   0   3   0.0      18.412248676384845      9.8383804747138726       19.68323369557665
    93   0   3   0.0      18.268704018008616      6.1718266455223336      18.774892589088822
    94   0   3   0.0      18.582540249927472      7.3438253575754215      21.852960897360763
    95   0   3   0.0      15.861225387362241        8.04883354496301      19.923318604695975
    96   0   2   0.0       5.314534783738404      17.068140224244221       8.652907798759859
    97   0   3   0.0      4.3289391516613813      15.368239841856317      8.0807111301433387
    98   0   3   0.0      3.7990839951624169      18.435674977460152      8.4717335785354795
    99   0   3   0.0       6.054226043575806      16.787107857493247      10.551251657386057
   100   0   3   0.0       6.973899803810971      17.317288050822523      7.5629200637517719
   101   0   2   0.0      10.936708989780486      22.488149823023175      20.702377452066969
   102   0   3   0.0      10.163727042649544      1.5895320304957392      19.654189349180019
   103   0   3   0.0      12.713502022737284  -0.0061882198480678278      19.628798220457714
   104   0   3   0.0      11.510552802432604      22.578279631709364    0.013311410593507463
   105   0   3   0.0       9.048157551189302      21.564736234892472      20.282469775896871
   106   0   2   0.0      6.1318030071697285      4.1596302700087104      7.9425219082095389
   107   0   3   0.0      4.0903421032149607      4.1561142689834538      7.8649910256559759
   108   0   3   0.0      6.7885893912793307      5.9292186923411876      8.7585884111615684
   109   0   3   0.0       6.816302143576495      2.3939855125501239      8.8843965799114741
   110   0   3   0.0      6.9803895949741621      4.3970331309719066       6.071863272405718
   111   0   2   0.0       7.114463674222204      16.321894447946278      14.560691291837081
   112   0   3   0.0      8.1471349348442725      16.688155058314248      12.824936908266794
   113   0   3   0.0      8.3243234607180607      15.475166628693298       15.99216691330869
   114   0   3   0.0      6.4532521342119713      18.130477662645511      15.267414675560785
   115   0   3   0.0       5.645479435969575      14.971228399022413      14.452170595464862
   116   0   2   0.0      3.1245425078707028      11.375472163335402      14.735180339141616
   117   0   3   0.0      3.1237342663078937      10.602251936920979      12.847088775905142
   118   0   3   0.0      2.7709422299222433      10.103962893544578      16.305904875820492
   119   0   3   0.0      5.0610565148492181      12.072235114831633      14.955886768733293
   120   0   3   0.0      1.4552509098099746      12.645077009780707      14.412797023657157
   121   0   2   0.0      13.043347696331693      6.4134207289404639      15.684825348375441
   122   0   3   0.0      12.431283952001696      6.4802979602098567      13.679789441385843
   123   0   3   0.0      14.651378443505106      7.6257208299845098       15.90142169090401
   124   0   3   0.0      11.539254755903038      6.9154193787333034      16.969437077688173
   125   0   3   0.0      13.670777737857422      4.5170522421393065      16.293413250331756
   126   0   2   0.0      19.639278740814859      3.3315900732825399      2.6040181952547017
   127   0   3   0.0      18.992526911470041      2.8578226669704181     0.76096525671389292
   128   0   3   0.0       17.81201137229651      3.6683341271271042      3.7908847489157687
   129   0   3   0.0      20.562060542389375      1.8478323885550936      3.7046092052778841
   130   0   3   0.0      20.502238281947307      5.1770771140376768      2.4219873978810726
   131   0   2   0.0     0.64959818242011269      13.438517141186793      2.0071090811232351
   132   0   3   0.0      22.544084316530615      14.039854269843595     0.23424144389953785
   133   0   3   0.0      2.1822862674508916       14.83418162175969      2.4693998659772021
   134   0   3   0.0   0.0013924550186969348      13.580108969458418       3.980156015750135
   135   0   3   0.0      1.1044721544184941      11.457687495459444      1.7512347839648312
   136   0   2   0.0      9.3254429465577964      6.0143294191139605      20.117801656254542
   137   0   3   0.0      8.5519164233210709       4.514473535789902      18.849144656921666
   138   0   3   0.0      8.1643766147738024      5.9953716689253582      21.812967620827127
   139   0   3   0.0      11.284956636990918      5.7259018224425891      20.680794674233198
   140   0   3   0.0      9.3124204760949798      7.7964467442964809      19.103997927646351
   141   0   2   0.0      3.2192484195163749      2.1201719468238709       16.12878047995116
   142   0   3   0.0      2.8015291703153942       3.225315876135638      14.358164418241387
   143   0   3   0.0      4.9476396153829256      2.8544165568482582      16.939996193523335
   144   0   3   0.0       1.701729655256534      2.2469731243603412      17.532833681837687
   145   0   3   0.0      3.4349106682672739     0.14161448386923192      15.631190432125903
   146   0   2   0.0      6.0042396636845545      1.8104560902491593      1.6140792336539809
   147   0   3   0.0      7.2301058978179533      1.2690785384545893   0.0069218416850121535
   148   0   3   0.0      5.0906130263327105     0.15897557743770441      2.3115216364460354
   149   0   3   0.0      7.4204806701781871      2.6303936470217453        2.96058325512693
   150   0   3   0.0      4.4795253501309311      3.0822610693558818     0.90839590268226955
   151   0   2   0.0      19.668341091786871       11.13575826374711      11.367626780843867
   152   0   3   0.0      19.717471332025333      12.979443349699407      10.319314979298483
   153   0   3   0.0      21.379071703555237      10.110009300167736      11.312146820040725
   154   0   3   0.0      19.212735473869028      11.549351067934445      13.337441959148393
   155   0   3   0.0      18.213226966391684      9.9445150579848605      10.593561123363678
   156   0   2   0.0     0.92914255342188912      6.7171930830301827      4.7724436528951717
   157   0   3   0.0       2.531481577792714      6.3422900819726449      3.4371721136231677
   158   0   3   0.0      22.545498604153174      5.0055310016020016      4.8139378884030197
   159   0   3   0.0      1.4374905091875543      7.5666090117851574      6.5041352694890957
   160   0   3   0.0    0.022365690184050678      8.3894898949537264      3.8756433806193988
   161   0   2   0.0      19.951944086767437      19.493940501760612      7.0206665204106384
   162   0   3   0.0      18.331320404258815      20.747697850113994      7.2216488595936026
   163   0   3   0.0      20.863483833586976      19.260194743302939      8.8729538655240017
   164   0   3   0.0      19.429461578940074      17.560970997280275      6.3782786827989373
   165   0   3   0.0       21.22571740198396      20.472066476344384      5.6727722460529417
   166   0   2   0.0      3.9527487775377295      14.828065419439643      20.223737712215843
   167   0   3   0.0      2.2774101778555234      14.189772911597512       21.25266168943228
   168   0   3   0.0      5.3054904296756202      13.795420409073865      21.256829589597327
   169   0   3   0.0      3.5505435375316785      14.508376665678275      18.198798993237265
   170   0   3   0.0      4.5442073206942961      16.773125842470566      20.360653277648101
   171   0   2   0.0      2.0446939760339573      12.318341436793835      8.0323777595855148
   172   0   3   0.0      2.1019069767874097       14.12473836344989      9.1463261277564811
   173   0   3   0.0      1.6721476939550943      10.623437477298131      8.9802514785980172
   174   0   3   0.0     0.55326091289757351      12.474394452650291      6.6714670068401523
   175   0   3   0.0      4.0317432686394135       12.38738822415087      7.4837123314070277
   176   0   2   0.0      19.517100006678284      18.713738572205081      15.865622356067433
   177   0   3   0.0      19.454476682390609      16.916351358487578      16.802511684856956
   178   0   3   0.0      20.809471705357154      19.987758873007678      16.883469745536178
   179   0   3   0.0      20.036796643014689      18.474111316457261      13.896180404235686
   180   0   3   0.0      17.595935540626488       19.42679757099198      15.537218432069272
   181   0   2   0.0      9.5430128669805061      19.173871494093099      7.5559933801081183
   182   0   3   0.0      11.213429030524816      20.296507878522235      7.6942207419259692
   183   0   3   0.0      8.2503616670523705      19.826265760476936      8.9846192976206822
   184   0   3   0.0      8.6198380847752141      19.380955760470858      5.7784887044465956
   185   0   3   0.0      10.295484525503008      17.153051568364496      7.7776770616953002
   186   0   2   0.0      7.8062980948590965      8.2263000612986961      12.264568709267257
   187   0   3   0.0      9.8155746023093258      8.2342203488621877       12.68613897968822
   188   0   3   0.0      7.3436812741860917      10.016422914223853      11.243805861759524
   189   0   3   0.0      7.4488553148241641      6.6715497702559574       10.98776988164062
   190   0   3   0.0      6.5675158755903649      8.0042941006601289      13.952530586869898
   191   0   2   0.0       20.75576301512076      3.1804655272905142      12.222661266165325
   192   0   3   0.0       19.37975670309757      1.8109535285496696      12.745364758281365
   193   0   3   0.0      22.179851837612755      2.0160046812321935      11.336931623331271
   194   0   3   0.0      19.998463091356054      4.3390796943945684      10.720877034565191
   195   0   3   0.0      21.288639749689143       4.626263653214794      13.602387278104855
   196   0   2   0.0      6.2615715940392649      17.765966807457485      3.9920164291024824
   197   0   3   0.0      7.3418453049495236      19.466036314645919      3.5245902983098381
   198   0   3   0.0       4.448252460060238      18.356352308823755      4.8854988803899113
   199   0   3   0.0      6.0993955666747981      17.165729326803127      2.0448648560471927
   200   0   3   0.0      7.3211192031324579      16.319843675011377      4.9384250775858618
   201   0   2   0.0      12.164040664795332      12.457675474134568      3.7336315834633518
   202   0   3   0.0       12.40385014597233      13.482106986144146      5.5154549917010494
   203   0   3   0.0      11.228313882604285      10.722338834500503      3.8449398188406514
   204   0   3   0.0      10.445933545275683      13.592087492633047      2.8751086245534605
   205   0   3   0.0      13.666615102698181      12.179009864711924      2.2100135220637043
   206   0   2   0.0       15.67301418835765      14.161382287430346      19.975025623329387
   207   0   3   0.0      14.680765177100779      13.432357000649825      21.639481131749815
   208   0   3   0.0       17.37773331991901      15.192144280438383      20.407278680121294
   209   0   3   0.0      16.170572590317668      12.624726907935138      18.757694348844769
   210   0   3   0.0      14.485992685298706      15.485870178141683      19.053304500986002
   211   0   2   0.0       11.77811129216418      20.589363546192008      13.096468532062797
   212   0   3   0.0      13.144291842960431      20.701016496990015      14.545702745460131
   213   0   3   0.0      10.388018605755693      19.265929334542466      13.719161841622878
   214   0   3   0.0      10.918820566998509      22.548193818568421      13.103444301115893
   215   0   3   0.0       12.17748854616103      20.162487756103456      11.251960522519832
   216   0   2   0.0      10.565335923067675      4.9034026485492292      8.8890974470372601
   217   0   3   0.0        9.56790277094521      4.1212222016531879      10.438227489566527
   218   0   3   0.0      11.394005529727407      6.6622058138586215      9.3370169774297853
   219   0   3   0.0       12.20033929219483      3.6566744518405558      8.1895983833601171
   220   0   3   0.0      9.5908832650216791      4.7144861732945431      7.1357157579790931
   221   0   2   0.0      7.7187867195957338      12.209565789438589      20.767500345530063
   222   0   3   0.0      7.8124054284273949      14.319557171572777      20.590170349683291
   223   0   3   0.0      9.5082900331774489      11.644386894743104      20.034051204091032
   224   0   3   0.0      7.6289599941581701      11.806632956629437      0.1820678769424097
   225   0   3   0.0      6.1056848258510454      11.037496704082448      20.152175632773027
   226   0   2   0.0      14.609611245640798      13.009589072099166      14.906761377105918
   227   0   3   0.0       13.46519090333125      14.316885453513324       16.03824318360838
   228   0   3   0.0      16.314358507479238      14.081743778984613      14.409608116456729
   229   0   3   0.0      14.990815225073602      11.307329156137193      15.896038783892388
   230   0   3   0.0      13.690146810275978      12.504681600629635      13.136068096543493
   231   0   2   0.0       5.609416401334447      20.864958823681054      11.113329741582055
   232   0   3   0.0      5.0885918587369625      18.997640520489355      11.560935372478175
   233   0   3   0.0      4.9011538555278173      22.195844492796137      12.467585939589192
   234   0   3   0.0       7.639413801328903      21.062346170784448      11.352023674741913
   235   0   3   0.0      5.0044457845326544       21.73545407664739      9.3276155809115568
   236   0   2   0.0      16.497470452026857     0.61524523802766229     0.60794204155824549
   237   0   3   0.0      16.844815818028685      2.2424308966227255      21.988538564611854
   238   0   3   0.0      18.364957695553151     0.27732814048917825      1.3641262777207439
   239   0   3   0.0      14.578586516062368     0.48127675048004337      1.0495641765226356
   240   0   3   0.0      16.468511985290299      21.092351550548774   -0.064261710148162551
   241   0   2   0.0      14.175051061694472      9.5569210756651426      8.7217495340180751
   242   0   3   0.0      13.213797525925131      8.9361083967749018       7.036703463629002
   243   0   3   0.0      12.915004245308914      10.376795101074025      10.061013128939967
   244   0   3   0.0      15.113556851563002      8.2203757673790818      9.9280215274037094
   245   0   3   0.0      15.369108774398077      11.183670294099375      8.3464189113611482
   246   0   2   0.0      15.299236706415654      15.759508790054497      4.2506193763876015
   247   0   3   0.0      16.396509244281269      16.363941712601001      2.6125802822782753
   248   0   3   0.0      16.575316672641133      14.560103304218849      5.2970165187606568
   249   0   3   0.0      14.640635961159344      17.340814032137647      5.3804058207293144
   250   0   3   0.0      13.714971866853634      14.886579601334409      3.4191466079360535
   251   0   2   0.0      18.071922120366459      5.6396547488141318      6.4819707449515276
   252   0   3   0.0      16.351122386458787      6.7619974609434887      6.1400961843157562
   253   0   3   0.0      19.468497581176369      7.0624759703139244      7.0515031051831611
   254   0   3   0.0      17.832313502013033      4.0271863070346585      7.6182714187029745
   255   0   3   0.0      19.010932359066931       5.131087337814173      4.7297934937617514
   256   0   2   0.0      14.022763159063748      1.2665647086936209      10.265407187554906
   257   0   3   0.0       14.28142614383532    0.059832066705380139      8.6805297493257605
   258   0   3   0.0      13.141862170313948     0.69203988533142446      11.958876474107289
   259   0   3   0.0      15.833366326987491      2.1416137236987947      10.242706429690354
   260   0   3   0.0      12.019701602996109      1.9987478752668335      9.3436231575101587
   261   0   2   0.0       2.004052264902437      15.103122453887615      12.114601354041339
   262   0   3   0.0     0.18665536536490246      15.864059812550435      12.325132081223094
   263   0   3   0.0      3.3343624262734517      16.390490806249154       11.37868066074889
   264   0   3   0.0      2.9209106493988757      14.420427553923124      13.864884910977741
   265   0   3   0.0      1.8687187827770926      13.242165564669378      11.011626430937589
   266   0   2   0.0      15.016876112749749      3.7364387920064637       3.425804587815573
   267   0   3   0.0      15.860737603913989      1.8400640619788549      3.8512871640724713
   268   0   3   0.0      13.069954926227709      3.4541556895143803      3.0738450105463295
   269   0   3   0.0      15.206992079061406      4.7761517806792213      5.2027926515033043
   270   0   3   0.0      15.862893385831322      4.6278154634519577      1.7046011605967513
   271   0   2   0.0      18.348833333063943      9.4320297897448846      15.788005256587335
   272   0   3   0.0      17.279575736938316      9.0767409485902846      17.415022476175281
   273   0   3   0.0      17.842056957906415      11.357869928806586      15.405222990973327
   274   0   3   0.0      20.429190041235369      8.9583365159658204      15.960684666247261
   275   0   3   0.0      17.765890620574222      8.0250832720258884      14.402652283338114
   276   0   1   0.0      0.6273823138290896     0.51744181036872672      6.2519039020664033
   277   0   1   0.0      1.1013462169157495     0.23228902434532631       10.91609387595412
   278   0   1   0.0     0.16083397609701919      3.4806628668719002      6.6473689767159678
   279   0   1   0.0      1.3759844700229324      3.6824640724893354      11.556908365367336
   280   0   1   0.0     0.42319596869769921      3.7203494193532651      15.073838447588201
   281   0   1   0.0      0.6243183590658814       4.739722408981236      18.117573183187314
   282   0   1   0.0      1.2936409820307067      8.1910308062222512      1.8451238399797869
   283   0   1   0.0       22.55629164984137      9.4519788480610014      7.3956716228256241
   284   0   1   0.0     0.28299055214302249      9.6471937658047757      16.066687135599903
   285   0   1   0.0     0.90459538302697939      9.4468072586032559      21.543759218194094
   286   0   1   0.0      1.8056821594137153      11.409854658670604      4.6383198350723944
   287   0   1   0.0      1.2007613611677852      10.726910836012337      11.396691025943875
   288   0   1   0.0    0.083556120249675056      12.179412348467634      20.695213517525556
   289   0   1   0.0      1.0076968666253656      14.471388489792659      18.940096106701073
   290   0   1   0.0      1.5337764501240483        16.1861916635104       4.516540378389446
   291   0   1   0.0     0.37225461480328831      20.511005228388797      8.9888507344620319
   292   0   1   0.0     0.80969567527327735       21.71059662206374      15.981259061109704
   293   0   1   0.0      1.2042259072115518      21.363049520270426      19.540995410498905
   294   0   1   0.0      2.9429264684274914      1.7562224189955726      19.757334394017686
   295   0   1   0.0      2.7126322753182248      2.6705053699582799      2.7655055806307716
   296   0   1   0.0      3.2840821842282728      5.4380492168383761      1.0756730853543131
   297   0   1   0.0      3.2359185156473815      8.2689794402625463      13.647949709841166
   298   0   1   0.0      1.8664920658192099      14.609497611179652      16.169669140372246
   299   0   1   0.0       1.977592788393169      16.526112701838983      7.8113012144417571
   300   0   1   0.0      2.4502113682715549      17.085954777895306      14.430931147298717
   301   0   1   0.0      1.7928202474663382      16.572483616975184      21.383580711700226
   302   0   1   0.0      2.8424868932749709      17.863611301761441      18.797842360102276
   303   0   1   0.0      2.2512540479788261      20.305034549953625      3.7342274437024976
   304   0   1   0.0      1.6522798874355522       22.49140355027745      1.0725196053910644
   305   0   1   0.0      2.5772233733570911      21.929220191608874      13.136352108932758
   306   0   1   0.0      5.3605049909848086      1.3062182136493901      14.170309552261987
   307   0   1   0.0      4.7033307943277478      2.1901058149941433      10.357748759709494
   308   0   1   0.0       3.567705750233725      6.6277743523122377      7.2983557362065694
   309   0   1   0.0      3.6434658141220422       5.658182792514995      15.160959207383705
   310   0   1   0.0      4.5857727353749089      7.9760486585847898      3.2181150124277953
   311   0   1   0.0      4.9606250630368764      7.3910924563065441      10.466459513587187
   312   0   1   0.0      4.2010610136147459      7.0175275995512649      18.022473339223094
   313   0   1   0.0      5.1590406879818129      10.497264713152397      8.7228050657144962
   314   0   1   0.0      3.7040616869968872      12.972368034962292      1.5853531031211141
   315   0   1   0.0      4.9166834250200697      14.467770381245549      12.150007788125517
   316   0   1   0.0      5.4435852779315761      13.816702577885803      16.750327479707845
   317   0   1   0.0      3.7026783835246153      16.769953083650261      2.1625768334073259
   318   0   1   0.0      3.9313142114323987      20.593798183617618      7.3116889939005878
   319   0   1   0.0       4.841099960805308      21.915916513602671       19.77765906167496