LAMMPS (15 Sep 2022)
  using 1 OpenMP thread(s) per MPI task
# /home/carsten/Documents/PhD/LPS/MD_GAP/polarise/MD_GAP_CS.in (written by LAMMPScs 2.1 on Mon Jun 17 10:42:15 2019)

# ------------------------------ INITIALIZATION -------------------------------
units      metal
dimension  3
boundary   p p p
atom_style full
newton     on off
# ----------------------------- ATOM DEFINITION -------------------------------
read_data geom.data
Reading data file ...
  orthogonal box = (0 0 0) to (22.610975 22.610831 22.610811)
  6 by 4 by 3 MPI processor grid
  reading atoms ...
  440 atoms
Finding 1-2 1-3 1-4 neighbors ...
  special bond factors lj:    0        0        0       
  special bond factors coul:  0        0        0       
     0 = max # of 1-2 neighbors
     0 = max # of 1-3 neighbors
     0 = max # of 1-4 neighbors
     1 = max # of special neighbors
  special bonds CPU = 0.003 seconds
  read_data CPU = 0.030 seconds
timer timeout 24:00:00 every 100
New timer settings: style=normal  mode=nosync  timeout=00:00:00
# ------------------------------ ATOM GROUPING --------------------------------
group Li_atoms type 1
165 atoms in group Li_atoms
group P_atoms type 2
55 atoms in group P_atoms
group S_atoms type 3
220 atoms in group S_atoms

neighbor 2.0 bin
comm_modify vel yes

# ------------------------- GAP Potential ---------------------------


pair_style quip
pair_coeff      * * /u/thuss/templates/gaps/naps/gp_2b_soap.xml "IP GAP label=GAP_2023_2_8_0_13_56_52_159" 11 15 16

reset_timestep 0
# ------------------------ DEFINE COMPUTES --------------------------

compute thermo_press_lmp all pressure thermo_temp
compute ke_tech all ke
compute epot_tech all pe
compute vacf_p P_atoms vacf
compute vacf_s S_atoms vacf
compute msd_li Li_atoms msd com yes
variable etotal_tech equal c_ke_tech+c_epot_tech
variable temp_phys equal c_thermo_temp
variable ke_phys equal ke
variable etot_phys equal etotal
variable vol_v equal vol
variable T equal "500"

# ---------------------------------- TIMESTEP ------------------------------------
timestep 0.002

# ------------------------ RUNS ---------------------------
dump equiatoms all atom 500 geom.dump
dump_modify equiatoms scale no

thermo 100 # every 0.1
thermo_style custom step etotal pe ke temp press

fix therm_equ all nvt temp 300 600 1.0
run 50000
Neighbor list info ...
  update: every = 1 steps, delay = 0 steps, check = yes
  max neighbors/atom: 2000, page size: 100000
  master list distance cutoff = 8
  ghost atom cutoff = 8
  binsize = 4, bins = 6 6 6
  1 neighbor lists, perpetual/occasional/extra = 1 0 0
  (1) pair quip, perpetual
      attributes: full, newton on
      pair build: full/bin
      stencil: full/bin/3d
      bin: standard
Per MPI rank memory allocation (min/avg/max) = 8.049 | 8.051 | 8.053 Mbytes
   Step         TotEng         PotEng         KinEng          Temp          Press     
         0  -3636030.7     -3636030.7      0              0              32886.681    
       100  -3636036.6     -3636119.7      83.09172       1464.295       11531.663    
       200  -3636047.5     -3636123.1      75.59753       1332.2277      6301.5338    
       300  -3636060.2     -3636132.8      72.625505      1279.8528      6444.6078    
       400  -3636072.9     -3636138.8      65.914171      1161.5814      4899.0299    
       500  -3636084.8     -3636146.7      61.855549      1090.0577      2143.2783    
       600  -3636096.1     -3636154        57.983624      1021.8242     -2366.736     
       700  -3636106.4     -3636160.9      54.418717      959.00118      1002.3918    
       800  -3636115.5     -3636165.5      50.048522      881.98682     -1289.9115    
       900  -3636123.9     -3636167.4      43.565636      767.74129     -1103.6753    
      1000  -3636131.5     -3636174.4      42.96309       757.12284     -3783.2044    
      1100  -3636138.4     -3636176.8      38.405592      676.80772     -835.99242    
      1200  -3636144.7     -3636179.7      34.981058      616.45841     -2154.1921    
      1300  -3636150.3     -3636184.6      34.281805      604.13573     -3511.4899    
      1400  -3636155.3     -3636186.3      31.008131      546.44497     -4218.7947    
      1500  -3636159.7     -3636188.8      29.101788      512.85018     -3930.1938    
      1600  -3636163.7     -3636192.3      28.671185      505.26182     -5353.2064    
      1700  -3636167.3     -3636194.5      27.208288      479.48173     -3122.4255    
      1800  -3636170.5     -3636195        24.446135      430.80531     -7672.7509    
      1900  -3636173.5     -3636197.9      24.469987      431.22565     -6913.546     
      2000  -3636176.1     -3636198.6      22.465609      395.90323     -5531.2666    
      2100  -3636178.6     -3636200.2      21.653391      381.5898      -5863.6176    
      2200  -3636180.7     -3636201.5      20.825137      366.99379     -4894.5831    
      2300  -3636182.7     -3636203.2      20.502733      361.31217     -5633.7714    
      2400  -3636184.4     -3636203.3      18.895158      332.98247     -8165.4302    
      2500  -3636186       -3636204.2      18.195491      320.65249     -4107.8355    
      2600  -3636187.4     -3636205.2      17.838014      314.35281     -9263.4309    
      2700  -3636188.6     -3636206        17.419749      306.98188     -7466.3149    
      2800  -3636189.6     -3636206        16.412268      289.22741     -6584.7025    
      2900  -3636190.5     -3636207.4      16.915501      298.0957      -8124.3428    
      3000  -3636191.2     -3636206.7      15.484763      272.88232     -5222.1445    
      3100  -3636191.7     -3636207.1      15.412971      271.61716     -6501.674     
      3200  -3636192.1     -3636208.2      16.055215      282.93519     -6221.1759    
      3300  -3636192.4     -3636209.3      16.904925      297.90931     -6986.997     
      3400  -3636192.4     -3636208.4      15.969748      281.42904     -7349.2116    
      3500  -3636192.4     -3636208.5      16.136748      284.37201     -6048.5429    
      3600  -3636192.1     -3636208.8      16.720168      294.65341     -8158.6598    
      3700  -3636191.8     -3636208.2      16.466284      290.1793      -6618.1617    
      3800  -3636191.3     -3636208.5      17.228019      303.60309     -9357.2908    
      3900  -3636190.7     -3636208        17.303043      304.9252      -4689.3937    
      4000  -3636190       -3636207.9      17.876921      315.03845     -7488.6228    
      4100  -3636189.2     -3636207        17.82672       314.15378     -6974.1638    
      4200  -3636188.4     -3636206.9      18.495188      325.93394     -7256.0247    
      4300  -3636187.6     -3636206.1      18.549394      326.8892      -6163.2878    
      4400  -3636186.8     -3636205.9      19.125938      337.04942     -7548.906     
      4500  -3636186       -3636205.4      19.412501      342.09942     -7753.0618    
      4600  -3636185.3     -3636204.6      19.334376      340.72265     -7950.1745    
      4700  -3636184.7     -3636205.2      20.4386        360.18199     -7412.6038    
      4800  -3636184.3     -3636204.4      20.137742      354.88007     -6523.8871    
      4900  -3636183.9     -3636203        19.04143       335.56017     -5436.3239    
      5000  -3636183.8     -3636204.3      20.521869      361.64941     -7783.0811    
      5100  -3636183.7     -3636204.5      20.803883      366.61924     -6585.4483    
      5200  -3636183.9     -3636204        20.140995      354.9374      -7076.3383    
      5300  -3636184.1     -3636204.1      20.01665       352.74612     -6551.8924    
      5400  -3636184.4     -3636204.8      20.397908      359.46488     -5311.9907    
      5500  -3636184.9     -3636204.3      19.397849      341.84121     -5610.5575    
      5600  -3636185.4     -3636204        18.616022      328.06336     -6321.6197    
      5700  -3636186       -3636205        19.054115      335.78372     -5255.7134    
      5800  -3636186.6     -3636206.1      19.55532       344.61626     -7822.9718    
      5900  -3636187.1     -3636205.2      18.036896      317.85763     -5202.668     
      6000  -3636187.7     -3636205.7      18.05956       318.25703     -7322.2277    
      6100  -3636188.1     -3636205.9      17.780009      313.3306      -4834.7554    
      6200  -3636188.5     -3636207.1      18.582125      327.466       -5760.2048    
      6300  -3636188.9     -3636208.6      19.766051      348.3299      -7161.6349    
      6400  -3636189.1     -3636207.6      18.493574      325.9055      -5610.6294    
      6500  -3636189.3     -3636206.1      16.810926      296.25281     -6671.7228    
      6600  -3636189.3     -3636206.9      17.621533      310.53785     -6801.9886    
      6700  -3636189.2     -3636207.3      18.079911      318.61567     -6176.0238    
      6800  -3636189       -3636207.7      18.699711      329.53818     -7468.5118    
      6900  -3636188.7     -3636206.3      17.560365      309.45989     -6485.7292    
      7000  -3636188.3     -3636207.5      19.208492      338.50424     -5449.6639    
      7100  -3636187.8     -3636207.1      19.302652      340.16359     -5794.7718    
      7200  -3636187.3     -3636206.4      19.135778      337.22282     -6096.8667    
      7300  -3636186.7     -3636205.9      19.164202      337.72374     -4989.2825    
      7400  -3636186.1     -3636205.8      19.729422      347.6844      -5251.1073    
      7500  -3636185.5     -3636205        19.489837      343.46227     -6141.9387    
      7600  -3636184.9     -3636203.3      18.38813       324.04731     -4712.359     
      7700  -3636184.4     -3636205.1      20.720246      365.14532     -4312.3123    
      7800  -3636183.9     -3636203.4      19.572711      344.92273     -6012.2346    
      7900  -3636183.4     -3636204.5      21.114861      372.09948     -5166.0065    
      8000  -3636183.1     -3636204.7      21.656069      381.63699     -3518.1071    
      8100  -3636182.8     -3636204.7      21.841118      384.89805     -3738.3255    
      8200  -3636182.7     -3636203.8      21.058131      371.09976     -3610.0816    
      8300  -3636182.7     -3636203.1      20.411138      359.69802     -1425.4273    
      8400  -3636182.8     -3636203.2      20.327403      358.22239     -5086.5787    
      8500  -3636183       -3636203.8      20.797706      366.51037     -4330.8151    
      8600  -3636183.3     -3636204.8      21.515132      379.15331     -8360.5976    
      8700  -3636183.6     -3636204.8      21.214919      373.86278     -6224.451     
      8800  -3636184       -3636204.7      20.649562      363.89969     -4068.9094    
      8900  -3636184.4     -3636206.1      21.676224      381.99217     -8365.5546    
      9000  -3636184.9     -3636205.5      20.659445      364.07385     -5043.687     
      9100  -3636185.3     -3636204.9      19.592398      345.26967     -6464.4377    
      9200  -3636185.7     -3636205.6      19.87404       350.23294     -6810.0174    
      9300  -3636186.1     -3636205.1      18.962144      334.16294     -5233.9166    
      9400  -3636186.4     -3636206.2      19.802229      348.96745     -8458.2705    
      9500  -3636186.7     -3636206.2      19.576557      344.99052     -3582.19      
      9600  -3636186.8     -3636206.6      19.717652      347.47697     -7743.841     
      9700  -3636186.9     -3636206.3      19.328244      340.61459     -7141.3432    
      9800  -3636186.9     -3636206.3      19.33677       340.76484     -7785.4415    
      9900  -3636186.8     -3636205.9      19.090814      336.43045     -6337.0722    
     10000  -3636186.7     -3636206.7      20.076034      353.79262     -5247.5283    
     10100  -3636186.4     -3636205.3      18.873771      332.60557     -7066.7261    
     10200  -3636186.1     -3636204.5      18.381062      323.92274     -4056.5732    
     10300  -3636185.7     -3636205.8      20.09954       354.20686     -7031.7792    
     10400  -3636185.2     -3636205.3      20.092784      354.08779     -3922.8506    
     10500  -3636184.7     -3636205.6      20.944065      369.08961     -5149.4665    
     10600  -3636184.1     -3636205.3      21.218947      373.93375     -8153.8117    
     10700  -3636183.5     -3636203.8      20.296902      357.68489     -3040.2096    
     10800  -3636182.9     -3636204        21.022707      370.47549     -6210.6985    
     10900  -3636182.4     -3636203.2      20.860122      367.61031     -5361.5324    
     11000  -3636181.9     -3636204.7      22.817159      402.09845     -6388.3622    
     11100  -3636181.5     -3636203.1      21.62454       381.08136     -5310.8807    
     11200  -3636181.1     -3636202.1      21.001673      370.10481     -5413.094     
     11300  -3636180.9     -3636202.5      21.566819      380.06417     -5070.7609    
     11400  -3636180.8     -3636202.2      21.438172      377.79707     -6289.8641    
     11500  -3636180.8     -3636203.1      22.374659      394.30045     -6915.2184    
     11600  -3636180.9     -3636203.2      22.388668      394.54732     -6164.6173    
     11700  -3636181       -3636203.5      22.443896      395.52058     -7609.6038    
     11800  -3636181.3     -3636203.4      22.093351      389.34306     -5495.7775    
     11900  -3636181.7     -3636202.9      21.1861        373.35491     -3826.6252    
     12000  -3636182.1     -3636202.7      20.581449      362.69936     -6876.3238    
     12100  -3636182.6     -3636203.8      21.199635      373.59343     -6068.475     
     12200  -3636183       -3636204        20.96103       369.38858     -6748.1914    
     12300  -3636183.5     -3636204.2      20.701552      364.81588     -6408.012     
     12400  -3636183.9     -3636205.4      21.464236      378.2564      -6685.9039    
     12500  -3636184.3     -3636206.7      22.341996      393.72484     -5922.492     
     12600  -3636184.7     -3636204.6      19.874131      350.23456     -4722.2166    
     12700  -3636185       -3636205.9      20.871117      367.80407     -5782.3713    
     12800  -3636185.3     -3636206.7      21.415078      377.39009     -6996.0292    
     12900  -3636185.5     -3636206.4      20.971633      369.57543     -6652.3893    
     13000  -3636185.6     -3636207.2      21.590308      380.47812     -6384.9709    
     13100  -3636185.6     -3636207.1      21.503056      378.94051     -8247.2847    
     13200  -3636185.6     -3636206.4      20.79997       366.55027     -4814.2341    
     13300  -3636185.5     -3636205.4      19.858169      349.95327     -6497.3782    
     13400  -3636185.4     -3636206.5      21.114667      372.09606     -5263.1276    
     13500  -3636185.1     -3636206.1      20.922338      368.70671     -6490.2606    
     13600  -3636184.8     -3636204.6      19.804062      348.99975     -5807.3561    
     13700  -3636184.4     -3636206.3      21.873672      385.47173     -5217.0335    
     13800  -3636184       -3636204.6      20.670711      364.27239     -5073.9339    
     13900  -3636183.5     -3636204.4      20.881392      367.98515     -5765.9519    
     14000  -3636182.9     -3636204.5      21.562861      379.99442     -6248.1302    
     14100  -3636182.4     -3636204.8      22.399458      394.73746     -5965.9629    
     14200  -3636181.9     -3636203.7      21.865366      385.32537     -6876.0688    
     14300  -3636181.3     -3636204.1      22.734507      400.64191     -6173.8722    
     14400  -3636180.9     -3636203.2      22.347364      393.81943     -8779.6321    
     14500  -3636180.4     -3636203.9      23.519523      414.47596     -5773.4112    
     14600  -3636180       -3636203.2      23.160566      408.15019     -5013.716     
     14700  -3636179.7     -3636202        22.272615      392.50216     -8687.1381    
     14800  -3636179.5     -3636202.7      23.188948      408.65037     -6699.2417    
     14900  -3636179.4     -3636202.9      23.5038        414.19889     -5910.863     
     15000  -3636179.4     -3636203.2      23.823702      419.83639     -6100.8509    
     15100  -3636179.4     -3636201.6      22.182696      390.91754     -6081.0531    
     15200  -3636179.6     -3636203.4      23.872361      420.6939      -6276.1539    
     15300  -3636179.8     -3636202.4      22.653183      399.20877     -6456.4477    
     15400  -3636180.1     -3636202.9      22.75864       401.0672      -4024.903     
     15500  -3636180.5     -3636203.4      22.958539      404.58995     -5415.7155    
     15600  -3636180.9     -3636204.2      23.341298      411.33517     -7016.6877    
     15700  -3636181.3     -3636204.3      22.955439      404.53532     -7111.7117    
     15800  -3636181.7     -3636204.9      23.131079      407.63055     -6439.9696    
     15900  -3636182.1     -3636204        21.889848      385.75679     -6860.0612    
     16000  -3636182.4     -3636204.1      21.722138      382.8013      -5455.0593    
     16100  -3636182.7     -3636203.2      20.546864      362.08988     -6481.406     
     16200  -3636182.8     -3636204.4      21.538471      379.56462     -7002.0941    
     16300  -3636182.9     -3636204.4      21.477229      378.48536     -5663.4026    
     16400  -3636182.9     -3636203.4      20.541787      362.0004      -8891.891     
     16500  -3636182.8     -3636203.7      20.845192      367.3472      -5767.6953    
     16600  -3636182.7     -3636204        21.378726      376.74948     -6887.5927    
     16700  -3636182.4     -3636203.6      21.172112      373.1084      -6371.4301    
     16800  -3636182.1     -3636203.6      21.489453      378.70079     -6055.9912    
     16900  -3636181.7     -3636203.8      22.106947      389.58266     -4903.8066    
     17000  -3636181.2     -3636203.6      22.370705      394.23076     -4784.1321    
     17100  -3636180.8     -3636204.6      23.881472      420.85447     -9540.7609    
     17200  -3636180.3     -3636203        22.721356      400.41016     -4516.5654    
     17300  -3636179.8     -3636202.8      23.065617      406.47695     -6426.2596    
     17400  -3636179.3     -3636202.5      23.203429      408.90555     -6367.6309    
     17500  -3636178.8     -3636202.3      23.475009      413.69151     -5097.7109    
     17600  -3636178.3     -3636203.1      24.786615      436.80547     -7386.8486    
     17700  -3636177.9     -3636200.6      22.695143      399.94821     -7190.2777    
     17800  -3636177.5     -3636201.1      23.593551      415.78053     -5928.1937    
     17900  -3636177.2     -3636201.4      24.190377      426.29818     -7629.0139    
     18000  -3636176.8     -3636200.4      23.595449      415.81398     -4886.7579    
     18100  -3636176.6     -3636200.7      24.136829      425.35452     -6914.8487    
     18200  -3636176.5     -3636200.7      24.21335       426.70302     -7222.8614    
     18300  -3636176.5     -3636201        24.480198      431.40559     -7144.0691    
     18400  -3636176.6     -3636200.8      24.257892      427.48796     -5075.4709    
     18500  -3636176.7     -3636200.6      23.938592      421.86107     -5665.9196    
     18600  -3636176.9     -3636201.4      24.420422      430.35217     -6681.0505    
     18700  -3636177.3     -3636201.8      24.506039      431.86098     -5694.6689    
     18800  -3636177.6     -3636201.3      23.683138      417.3593      -8993.1751    
     18900  -3636178       -3636201.2      23.216885      409.14268     -5524.4977    
     19000  -3636178.4     -3636202.4      23.972312      422.4553      -5897.217     
     19100  -3636178.8     -3636201.6      22.821037      402.16681     -8644.1124    
     19200  -3636179.1     -3636203.5      24.373947      429.53316     -3521.0225    
     19300  -3636179.5     -3636201.7      22.275637      392.55542     -6842.3087    
     19400  -3636179.8     -3636202.3      22.584857      398.00468     -7672.6074    
     19500  -3636180       -3636204.3      24.305616      428.329       -7508.9786    
     19600  -3636180.1     -3636202.4      22.21615       391.50709     -6255.3252    
     19700  -3636180.2     -3636203.2      23.035047      405.93822     -7794.1702    
     19800  -3636180.2     -3636202.5      22.351874      393.89891     -7868.8131    
     19900  -3636180.1     -3636202.6      22.531716      397.06819     -7428.8136    
     20000  -3636179.9     -3636201.3      21.408626      377.27639     -8606.2158    
     20100  -3636179.7     -3636203.1      23.440636      413.08577     -6027.8362    
     20200  -3636179.3     -3636203.1      23.764722      418.79703     -8226.5437    
     20300  -3636179       -3636202.2      23.195044      408.75779     -6474.3094    
     20400  -3636178.6     -3636201.3      22.750002      400.91497     -6015.8704    
     20500  -3636178.2     -3636201.7      23.525618      414.58337     -6624.3963    
     20600  -3636177.8     -3636202.4      24.591937      433.37472     -6164.4149    
     20700  -3636177.4     -3636202        24.660963      434.59115     -10162.509    
     20800  -3636177       -3636200.8      23.853703      420.36509     -3780.402     
     20900  -3636176.7     -3636200.6      23.957792      422.19941     -7568.3361    
     21000  -3636176.4     -3636202.7      26.324733      463.91116     -7994.5849    
     21100  -3636176.1     -3636199.4      23.337583      411.2697      -5680.4179    
     21200  -3636175.9     -3636198.7      22.808714      401.94964     -6635.3566    
     21300  -3636175.7     -3636201.2      25.449136      448.48083     -6681.7083    
     21400  -3636175.7     -3636201.2      25.559477      450.42533     -7200.5459    
     21500  -3636175.7     -3636200.8      25.137213      442.98393     -6464.5708    
     21600  -3636175.7     -3636201        25.294431      445.75452     -4872.4384    
     21700  -3636175.9     -3636200.6      24.710746      435.46845     -7336.8669    
     21800  -3636176       -3636201        24.941839      439.54091     -5325.8621    
     21900  -3636176.2     -3636201.6      25.406832      447.73533     -4676.3273    
     22000  -3636176.4     -3636201.3      24.86          438.0987      -7083.7584    
     22100  -3636176.6     -3636201.6      24.924682      439.23858     -3394.5512    
     22200  -3636176.8     -3636201.1      24.281338      427.90115     -9024.0082    
     22300  -3636177.1     -3636201.6      24.551028      432.6538      -4372.0977    
     22400  -3636177.3     -3636201.5      24.172566      425.98431     -7137.0649    
     22500  -3636177.5     -3636202        24.537042      432.40733     -7356.8047    
     22600  -3636177.7     -3636202.6      24.970394      440.04413     -5085.1401    
     22700  -3636177.8     -3636201.5      23.708882      417.81297     -8571.134     
     22800  -3636177.9     -3636202.4      24.498697      431.73158     -6200.0701    
     22900  -3636177.9     -3636201.4      23.464617      413.50838     -6437.0144    
     23000  -3636177.9     -3636201.5      23.597994      415.85883     -5999.5643    
     23100  -3636177.7     -3636202        24.290012      428.054       -4062.6143    
     23200  -3636177.6     -3636201.9      24.307095      428.35505     -3551.7024    
     23300  -3636177.3     -3636201.5      24.240634      427.18384     -4897.796     
     23400  -3636177       -3636202.3      25.267961      445.28805     -4516.8026    
     23500  -3636176.6     -3636201        24.34819       429.07926     -4593.1176    
     23600  -3636176.2     -3636201        24.741241      436.00585     -5388.1091    
     23700  -3636175.8     -3636200.4      24.568589      432.96328     -5043.6144    
     23800  -3636175.3     -3636200.6      25.293982      445.7466      -3765.7289    
     23900  -3636174.9     -3636200.3      25.428238      448.11254     -3094.6564    
     24000  -3636174.5     -3636200.6      26.131193      460.50047     -4764.273     
     24100  -3636174.1     -3636199.7      25.591216      450.98466     -5259.2628    
     24200  -3636173.7     -3636198.5      24.811353      437.24141     -3502.4144    
     24300  -3636173.4     -3636199.8      26.359027      464.51551     -6357.3417    
     24400  -3636173.2     -3636200.3      27.072058      477.08099     -3602.6533    
     24500  -3636173.1     -3636199.9      26.824081      472.71098     -3670.1041    
     24600  -3636173       -3636199.7      26.639436      469.45706     -6262.1302    
     24700  -3636173.1     -3636200.6      27.580232      486.03636     -3362.2899    
     24800  -3636173.2     -3636200.5      27.314972      481.36177     -3367.0701    
     24900  -3636173.4     -3636198.3      24.935951      439.43716     -5153.8609    
     25000  -3636173.7     -3636199.1      25.419876      447.96519     -6139.5839    
     25100  -3636174       -3636199.9      25.899483      456.41714     -3852.7577    
     25200  -3636174.4     -3636200.5      26.122383      460.34521     -4749.8826    
     25300  -3636174.8     -3636200.1      25.311955      446.06333     -6631.745     
     25400  -3636175.1     -3636199.6      24.508055      431.89651     -4427.8067    
     25500  -3636175.3     -3636200.6      25.318707      446.18233     -3891.1359    
     25600  -3636175.5     -3636201.8      26.273017      462.99978     -5881.0385    
     25700  -3636175.7     -3636200.9      25.252896      445.02256     -5384.9765    
     25800  -3636175.8     -3636199.6      23.776207      418.99942     -6450.9008    
     25900  -3636175.8     -3636200.7      24.882201      438.48993     -4647.9678    
     26000  -3636175.7     -3636201        25.2542        445.04554     -6445.7002    
     26100  -3636175.6     -3636200.7      25.081587      442.00365     -4878.946     
     26200  -3636175.4     -3636201.5      26.071831      459.45436     -7170.5899    
     26300  -3636175.1     -3636199.7      24.548002      432.60047     -6304.5018    
     26400  -3636174.8     -3636199.9      25.140274      443.03787     -6818.482     
     26500  -3636174.3     -3636199.9      25.58993       450.962       -6874.2947    
     26600  -3636173.8     -3636200        26.202345      461.75435     -4424.1495    
     26700  -3636173.3     -3636198.4      25.120923      442.69685     -5801.2138    
     26800  -3636172.7     -3636197.6      24.885212      438.543       -4664.6057    
     26900  -3636172.2     -3636199.5      27.272882      480.62004     -6517.7098    
     27000  -3636171.7     -3636199.5      27.851913      490.82408     -5145.565     
     27100  -3636171.2     -3636197.9      26.699821      470.52119     -6568.7953    
     27200  -3636170.8     -3636199.2      28.404069      500.55453     -3266.8592    
     27300  -3636170.5     -3636199.6      29.099235      512.80519     -4841.3606    
     27400  -3636170.3     -3636198.4      28.080599      494.85414     -4648.2974    
     27500  -3636170.2     -3636197.2      27.028014      476.30482     -4900.3008    
     27600  -3636170.2     -3636197.6      27.400288      482.86526     -3950.0513    
     27700  -3636170.2     -3636196.8      26.5483        467.851       -3610.0145    
     27800  -3636170.4     -3636197.9      27.459133      483.90227     -4174.0305    
     27900  -3636170.6     -3636197.6      27.015558      476.08531     -7021.5717    
     28000  -3636170.9     -3636198.3      27.372587      482.37711     -5219.8884    
     28100  -3636171.2     -3636197.8      26.664602      469.90054     -4450.5861    
     28200  -3636171.5     -3636198.6      27.148894      478.43505     -4923.1713    
     28300  -3636171.9     -3636198.9      27.054209      476.76645     -2895.5934    
     28400  -3636172.2     -3636199.2      26.976328      475.39397     -4679.5028    
     28500  -3636172.5     -3636198.2      25.647682      451.97973     -4938.8799    
     28600  -3636172.8     -3636198.2      25.410014      447.79139     -6247.0442    
     28700  -3636173.1     -3636200.1      26.971229      475.30411     -5765.4487    
     28800  -3636173.3     -3636200        26.752302      471.44605     -6957.3305    
     28900  -3636173.4     -3636200.3      26.831996      472.85046     -3692.3071    
     29000  -3636173.6     -3636198.7      25.152229      443.24854     -6315.6316    
     29100  -3636173.6     -3636200.1      26.50944       467.16617     -4078.8353    
     29200  -3636173.6     -3636199.9      26.260721      462.78309     -4595.91      
     29300  -3636173.6     -3636199.5      25.870534      455.90698     -4012.3229    
     29400  -3636173.5     -3636199.9      26.43123       465.78792     -4934.1172    
     29500  -3636173.3     -3636200        26.654389      469.72057     -3734.545     
     29600  -3636173.1     -3636199.5      26.433911      465.83515     -5627.6237    
     29700  -3636172.8     -3636200.2      27.416392      483.14907     -3795.0869    
     29800  -3636172.4     -3636199.9      27.469844      484.09102     -4695.2387    
     29900  -3636172.1     -3636198.7      26.693955      470.41781     -5341.3798    
     30000  -3636171.7     -3636198.8      27.124687      478.00846     -1621.4025    
     30100  -3636171.3     -3636199.8      28.454395      501.44141     -6511.6476    
     30200  -3636171       -3636197.9      26.841766      473.02264     -4698.8106    
     30300  -3636170.7     -3636198.7      27.920198      492.02745     -4505.0819    
     30400  -3636170.4     -3636198.4      27.935403      492.29541     -3894.2169    
     30500  -3636170.2     -3636198.7      28.4983        502.21514     -3745.3397    
     30600  -3636169.9     -3636197.4      27.477523      484.22635     -1473.3216    
     30700  -3636169.7     -3636197        27.337374      481.75656     -3762.4397    
     30800  -3636169.5     -3636197.9      28.353517      499.66367     -4777.839     
     30900  -3636169.4     -3636197.1      27.716239      488.43316     -2917.9135    
     31000  -3636169.3     -3636198.8      29.483368      519.57463     -2744.6603    
     31100  -3636169.3     -3636198.1      28.786831      507.29981     -4265.6375    
     31200  -3636169.3     -3636196.9      27.633981      486.98356     -5940.2374    
     31300  -3636169.3     -3636197.3      28.004034      493.50487     -4146.9321    
     31400  -3636169.4     -3636196.8      27.373368      482.39087     -5544.1279    
     31500  -3636169.5     -3636195.3      25.826702      455.13454     -6054.0435    
     31600  -3636169.6     -3636199.4      29.762052      524.48577     -2867.3969    
     31700  -3636169.8     -3636197.6      27.785903      489.66082     -5466.1394    
     31800  -3636169.9     -3636197.5      27.630448      486.92129     -4959.4857    
     31900  -3636170.1     -3636197.1      26.988501      475.60849     -3814.5281    
     32000  -3636170.2     -3636198.7      28.477186      501.84306     -3909.91      
     32100  -3636170.3     -3636196.5      26.190638      461.54804     -1645.398     
     32200  -3636170.5     -3636198        27.503124      484.6775      -4498.5164    
     32300  -3636170.6     -3636197.8      27.175235      478.89925     -4071.14      
     32400  -3636170.7     -3636198        27.304634      481.1796      -5338.7792    
     32500  -3636170.8     -3636199.3      28.486351      502.00456     -5577.7934    
     32600  -3636170.9     -3636197.6      26.73781       471.19066     -4115.0412    
     32700  -3636170.9     -3636198.4      27.493788      484.51298     -4076.0652    
     32800  -3636170.9     -3636198.2      27.267758      480.52974     -2073.2324    
     32900  -3636170.8     -3636199        28.161608      496.28173     -1510.7991    
     33000  -3636170.7     -3636197.3      26.614954      469.02561     -4634.2615    
     33100  -3636170.5     -3636198.3      27.825811      490.3641      -3809.5819    
     33200  -3636170.2     -3636198.8      28.603413      504.0675      -5882.5975    
     33300  -3636169.9     -3636200.3      30.306986      534.08894     -4183.9933    
     33400  -3636169.6     -3636199.5      29.911124      527.11281     -7035.4998    
     33500  -3636169.2     -3636198.3      29.097669      512.7776      -3986.3394    
     33600  -3636168.8     -3636197.5      28.687682      505.55254     -1791.3225    
     33700  -3636168.3     -3636196.3      27.963538      492.79121     -6617.3899    
     33800  -3636167.9     -3636197.2      29.300908      516.3592      -3131.8692    
     33900  -3636167.5     -3636196        28.552188      503.16478     -4656.013     
     34000  -3636167       -3636194.9      27.832841      490.48799     -1512.6904    
     34100  -3636166.6     -3636195.9      29.231186      515.13051     -6980.7732    
     34200  -3636166.2     -3636195.8      29.569744      521.09679     -4919.4295    
     34300  -3636165.9     -3636195.4      29.538884      520.55296     -6193.3385    
     34400  -3636165.6     -3636194.2      28.655437      504.98431     -6833.6736    
     34500  -3636165.4     -3636195.6      30.208437      532.35226     -1655.4722    
     34600  -3636165.2     -3636194.2      29.052525      511.98204     -5717.3455    
     34700  -3636165.1     -3636195.9      30.802794      542.82638     -4870.6464    
     34800  -3636165       -3636195.2      30.15079       531.33637     -2922.586     
     34900  -3636165.1     -3636194.9      29.766699      524.56767     -4735.7384    
     35000  -3636165.3     -3636193.9      28.600106      504.00923     -4310.4254    
     35100  -3636165.4     -3636195.6      30.197331      532.15654     -6761.4582    
     35200  -3636165.6     -3636195.4      29.781717      524.83233     -4534.3248    
     35300  -3636165.8     -3636195.7      29.864379      526.28905     -4705.9541    
     35400  -3636166       -3636195        28.988203      510.84852     -4814.7236    
     35500  -3636166.3     -3636195.7      29.400979      518.12271     -5328.9096    
     35600  -3636166.5     -3636194.3      27.777713      489.51649     -3038.9808    
     35700  -3636166.8     -3636197.2      30.486953      537.26044     -2010.872     
     35800  -3636167       -3636196.5      29.535945      520.50117     -5721.6997    
     35900  -3636167.2     -3636197        29.771977      524.66068     -3333.9033    
     36000  -3636167.5     -3636197        29.520955      520.237       -4727.5482    
     36100  -3636167.7     -3636197.8      30.059763      529.73222     -5320.498     
     36200  -3636167.9     -3636197.1      29.175768      514.15391     -1631.2734    
     36300  -3636168       -3636194.5      26.443991      466.01279     -6191.3428    
     36400  -3636168.1     -3636195.8      27.694875      488.05666     -4114.0942    
     36500  -3636168.2     -3636197        28.829535      508.05237     -3943.9311    
     36600  -3636168.2     -3636196.3      28.124         495.61897     -3069.4779    
     36700  -3636168.1     -3636196.5      28.398404      500.4547      -3107.3374    
     36800  -3636168       -3636196        28.002751      493.48225     -6808.2362    
     36900  -3636167.8     -3636195.6      27.763536      489.26665     -683.75804    
     37000  -3636167.6     -3636195.6      27.97265       492.9518      -5374.9002    
     37100  -3636167.3     -3636195.3      28.0233        493.84438     -5284.0324    
     37200  -3636166.9     -3636196.2      29.268776      515.79295     -6405.4091    
     37300  -3636166.5     -3636195.5      28.985174      510.79513     -3805.114     
     37400  -3636166.1     -3636196.5      30.396969      535.67469     -6837.1044    
     37500  -3636165.6     -3636197        31.407454      553.48209     -2761.5996    
     37600  -3636165.2     -3636196.8      31.666827      558.05292     -4638.4285    
     37700  -3636164.8     -3636194.7      29.925095      527.35902     -4382.1221    
     37800  -3636164.3     -3636194.6      30.32195       534.35265     -4358.1562    
     37900  -3636163.9     -3636194        30.062448      529.77955     -4488.9959    
     38000  -3636163.5     -3636192.8      29.304111      516.41564     -4178.8812    
     38100  -3636163.2     -3636194.3      31.056207      547.29219     -6518.9843    
     38200  -3636162.9     -3636194.4      31.522799      555.51478     -4104.4326    
     38300  -3636162.7     -3636194.4      31.779008      560.02986     -4289.4087    
     38400  -3636162.5     -3636194.7      32.20449       567.52797     -5149.3735    
     38500  -3636162.4     -3636193.6      31.257296      550.83592     -4710.9712    
     38600  -3636162.3     -3636193.2      30.877102      544.13589     -6091.2127    
     38700  -3636162.2     -3636194.2      31.947604      563.00096     -7604.7418    
     38800  -3636162.2     -3636192.8      30.51748       537.7984      -3785.5644    
     38900  -3636162.3     -3636192.3      30.009335      528.84356     -5345.175     
     39000  -3636162.3     -3636191.7      29.353168      517.28015     -4902.5273    
     39100  -3636162.5     -3636194        31.525818      555.56798     -9060.5657    
     39200  -3636162.7     -3636192.9      30.238183      532.87646     -3311.418     
     39300  -3636163       -3636192.7      29.777321      524.75485     -3586.3311    
     39400  -3636163.2     -3636193.6      30.399581      535.72072     -8016.8332    
     39500  -3636163.5     -3636194.9      31.377907      552.9614      -8902.4718    
     39600  -3636163.7     -3636194.1      30.448435      536.58165     -1344.0664    
     39700  -3636163.9     -3636195.8      31.871854      561.66604     -6206.5196    
     39800  -3636164.2     -3636193.2      28.974139      510.60066     -8852.0759    
     39900  -3636164.4     -3636195.5      31.025906      546.75821     -6431.7101    
     40000  -3636164.6     -3636195.5      30.888318      544.33354     -5781.9226    
     40100  -3636164.7     -3636193.9      29.163134      513.93126     -4568.8305    
     40200  -3636164.8     -3636195.3      30.423385      536.1402      -6820.549     
     40300  -3636164.9     -3636192.6      27.782978      489.60927     -5436.5737    
     40400  -3636164.8     -3636194.6      29.828938      525.66448     -4189.5476    
     40500  -3636164.7     -3636195.2      30.470259      536.96625     -5379.8082    
     40600  -3636164.5     -3636196.7      32.150554      566.57747     -3789.3479    
     40700  -3636164.3     -3636194.1      29.819345      525.49543     -6649.35      
     40800  -3636164.1     -3636194.8      30.750732      541.90893     -3810.0224    
     40900  -3636163.9     -3636192.6      28.707412      505.90023     -4753.3041    
     41000  -3636163.6     -3636194.7      31.11655       548.35559     -6147.9176    
     41100  -3636163.3     -3636195        31.674679      558.19129     -6247.6866    
     41200  -3636163.1     -3636193.7      30.637208      539.90833     -4027.1058    
     41300  -3636162.8     -3636194.2      31.351401      552.49429     -4026.1741    
     41400  -3636162.6     -3636193.4      30.839178      543.46757     -8364.665     
     41500  -3636162.4     -3636194.7      32.36911       570.429       -3447.3762    
     41600  -3636162.2     -3636193.7      31.545604      555.91665     -6125.9422    
     41700  -3636162       -3636193.7      31.67937       558.27397     -5945.4039    
     41800  -3636161.8     -3636192.5      30.636914      539.90314     -4337.8989    
     41900  -3636161.7     -3636191.8      30.125859      530.89702     -4045.5764    
     42000  -3636161.6     -3636192        30.439975      536.43256     -4302.9083    
     42100  -3636161.5     -3636193.4      31.920175      562.51758     -5463.7029    
     42200  -3636161.5     -3636193.9      32.384595      570.70188     -3001.8177    
     42300  -3636161.5     -3636192.2      30.711301      541.21404     -4672.3835    
     42400  -3636161.5     -3636192        30.540305      538.20064     -4022.5083    
     42500  -3636161.5     -3636191.6      30.0491        529.54431     -3544.2053    
     42600  -3636161.5     -3636193.3      31.733338      559.22503     -3340.9263    
     42700  -3636161.5     -3636194.3      32.731852      576.82147     -3756.9498    
     42800  -3636161.5     -3636193        31.442564      554.10083     -3812.2002    
     42900  -3636161.5     -3636193.7      32.246062      568.26058     -5826.4406    
     43000  -3636161.4     -3636193.7      32.363993      570.33883     -3504.0184    
     43100  -3636161.2     -3636192.6      31.376623      552.93877     -6924.2526    
     43200  -3636161       -3636193.5      32.56749       573.92498     -2290.1039    
     43300  -3636160.6     -3636190.9      30.237211      532.85933     -6365.8872    
     43400  -3636160.2     -3636192.5      32.357124      570.21779     -3706.1559    
     43500  -3636159.7     -3636191.1      31.402238      553.39017     -2890.4115    
     43600  -3636159.2     -3636191.1      31.878329      561.78014     -5994.1775    
     43700  -3636158.7     -3636191        32.349758      570.08797     -3445.7813    
     43800  -3636158.3     -3636192.2      33.936833      598.05641     -5175.854     
     43900  -3636157.9     -3636190.2      32.23219       568.01611     -3467.5885    
     44000  -3636157.7     -3636190.9      33.154232      584.26493     -3534.3584    
     44100  -3636157.6     -3636191.9      34.280774      604.11756     -6391.7072    
     44200  -3636157.6     -3636190.1      32.581966      574.18009     -298.98401    
     44300  -3636157.6     -3636191.3      33.773259      595.17381     -3571.8825    
     44400  -3636157.6     -3636189.5      31.822185      560.79075     -6693.3252    
     44500  -3636157.7     -3636189.9      32.142991      566.4442      -3697.5114    
     44600  -3636157.9     -3636190.3      32.389536      570.78896     -5250.9983    
     44700  -3636158.2     -3636190.4      32.228732      567.95518     -5048.8609    
     44800  -3636158.6     -3636190        31.399676      553.34502     -4434.9495    
     44900  -3636159.2     -3636191.4      32.217857      567.76353     -3428.7492    
     45000  -3636159.9     -3636192.1      32.145631      566.49071     -7406.0215    
     45100  -3636160.7     -3636192.3      31.63566       557.50368     -5065.2464    
     45200  -3636161.4     -3636193.1      31.769207      559.85714     -5833.8795    
     45300  -3636161.8     -3636192.7      30.923812      544.95904     -3160.8599    
     45400  -3636162.1     -3636194.5      32.413559      571.21232     -3162.6946    
     45500  -3636162.3     -3636194.1      31.780333      560.05321     -5961.4389    
     45600  -3636162.3     -3636192.9      30.579042      538.88328     -6768.8585    
     45700  -3636162.2     -3636193.3      31.12847       548.56565     -1519.706     
     45800  -3636161.9     -3636192.6      30.654931      540.22065     -6942.6536    
     45900  -3636161.6     -3636193.4      31.841089      561.12389     -6191.9598    
     46000  -3636161.1     -3636191.6      30.506966      537.61311     -2862.8844    
     46100  -3636160.6     -3636191.7      31.183979      549.54387     -6635.715     
     46200  -3636159.9     -3636191.3      31.39329       553.23249     -2563.7638    
     46300  -3636159.3     -3636190.8      31.503364      555.17228     -5047.6396    
     46400  -3636158.9     -3636192        33.156931      584.31249     -6346.5786    
     46500  -3636158.5     -3636189.7      31.261341      550.90719     -1605.6317    
     46600  -3636158.2     -3636191.4      33.230049      585.60101     -6589.5406    
     46700  -3636157.9     -3636190.4      32.493641      572.62357     -3773.1509    
     46800  -3636157.6     -3636191.1      33.420823      588.96296     -5311.2153    
     46900  -3636157.4     -3636188.1      30.736971      541.66641     -6212.3241    
     47000  -3636157.2     -3636191.6      34.47528       607.54527     -3466.2793    
     47100  -3636156.9     -3636189.8      32.85773       579.03977     -5452.6867    
     47200  -3636156.6     -3636188.7      32.113231      565.91975     -4363.4068    
     47300  -3636156.3     -3636190.1      33.782666      595.33958     -5324.7616    
     47400  -3636156       -3636189.3      33.267188      586.2555      -3922.6888    
     47500  -3636155.7     -3636190.5      34.7818        612.94696     -3020.292     
     47600  -3636155.4     -3636188.8      33.38627       588.35403     -6490.0651    
     47700  -3636155.2     -3636189.7      34.547319      608.81479     -4493.5398    
     47800  -3636155       -3636189.4      34.419435      606.56114     -1261.5062    
     47900  -3636154.9     -3636187.1      32.167895      566.88306     -4161.111     
     48000  -3636154.8     -3636188.2      33.40851       588.74597     -3262.3301    
     48100  -3636154.7     -3636189.1      34.400397      606.22563     -3562.1046    
     48200  -3636154.5     -3636188.7      34.167641      602.12386     -254.36165    
     48300  -3636154.4     -3636186.4      32.02708       564.40153     -3482.703     
     48400  -3636154.3     -3636188.5      34.16406       602.06075     -1312.4933    
     48500  -3636154.3     -3636187.5      33.196938      585.01751     -3000.2272    
     48600  -3636154.3     -3636189.4      35.12198       618.94182     -1627.7933    
     48700  -3636154.3     -3636190.2      35.85337       631.83085     -4487.9579    
     48800  -3636154.5     -3636189.8      35.270622      621.5613      -5426.397     
     48900  -3636154.8     -3636188.3      33.539082      591.04699     -4237.4881    
     49000  -3636155.1     -3636188.1      32.998367      581.51817     -3393.5055    
     49100  -3636155.5     -3636189.3      33.798433      595.61744     -3808.7323    
     49200  -3636156       -3636190.2      34.25953       603.74318     -4798.9081    
     49300  -3636156.4     -3636190.5      34.132912      601.51185     -3124.3742    
     49400  -3636156.8     -3636190.9      34.065521      600.32423     -3992.1659    
     49500  -3636157.3     -3636190.3      33.009489      581.71418     -2096.0227    
     49600  -3636157.6     -3636190.3      32.703633      576.32418     -5722.127     
     49700  -3636157.8     -3636189.6      31.713031      558.86716     -6174.7869    
     49800  -3636157.9     -3636191.7      33.791568      595.49645     -6221.9737    
     49900  -3636157.9     -3636190.3      32.442889      571.72918     -4339.1708    
     50000  -3636157.7     -3636189.9      32.152235      566.6071      -4798.8026    
Loop time of 8542.23 on 72 procs for 50000 steps with 440 atoms

Performance: 1.011 ns/day, 23.728 hours/ns, 5.853 timesteps/s, 2.575 katom-step/s
94.6% CPU use with 72 MPI tasks x 1 OpenMP threads

MPI task timing breakdown:
Section |  min time  |  avg time  |  max time  |%varavg| %total
---------------------------------------------------------------
Pair    | 4851       | 6591.4     | 7801.3     | 719.0 | 77.16
Bond    | 0.02524    | 0.044881   | 0.067176   |   4.6 |  0.00
Neigh   | 0.092434   | 0.11834    | 0.1484     |   3.0 |  0.00
Comm    | 730.75     | 1932.5     | 3666.9     |1326.8 | 22.62
Output  | 0.092466   | 0.097013   | 0.30863    |   8.1 |  0.00
Modify  | 7.5684     | 15.954     | 46.187     | 209.0 |  0.19
Other   |            | 2.059      |            |       |  0.02

Nlocal:        6.11111 ave          10 max           3 min
Histogram: 3 9 16 0 16 13 0 9 4 2
Nghost:        379.667 ave         394 max         363 min
Histogram: 4 0 4 13 12 10 9 11 7 2
Neighs:              0 ave           0 max           0 min
Histogram: 72 0 0 0 0 0 0 0 0 0
FullNghs:       495.25 ave         837 max         221 min
Histogram: 3 9 7 11 14 13 5 4 3 3

Total # of neighbors = 35658
Ave neighs/atom = 81.040909
Ave special neighs/atom = 0
Neighbor list builds = 2239
Dangerous builds = 0
unfix therm_equ

fix therm_equ2 all nvt temp 600 300 1.0
run 100000
Per MPI rank memory allocation (min/avg/max) = 8.049 | 8.051 | 8.053 Mbytes
   Step         TotEng         PotEng         KinEng          Temp          Press     
     50000  -3636157.7     -3636189.9      32.152235      566.6071      -4798.8026    
     50100  -3636157.6     -3636188.6      30.926539      545.0071      -5902.815     
     50200  -3636157.4     -3636190.8      33.450508      589.48609     -3531.8438    
     50300  -3636157       -3636191        33.973152      598.69644     -3116.2639    
     50400  -3636156.6     -3636189.9      33.275714      586.40576     -4954.4116    
     50500  -3636156       -3636190.1      34.088912      600.73645     -5402.248     
     50600  -3636155.4     -3636188.4      32.986414      581.30752     -245.18323    
     50700  -3636154.8     -3636188.5      33.69676       593.8257      -6157.2139    
     50800  -3636154.3     -3636187.9      33.616809      592.41674     -1307.6436    
     50900  -3636153.8     -3636187.6      33.764504      595.01953     -6821.2867    
     51000  -3636153.6     -3636186.4      32.850111      578.9055      -3725.0874    
     51100  -3636153.4     -3636189.5      36.067981      635.61286     -619.98271    
     51200  -3636153.4     -3636187.3      33.902892      597.45829     -6029.6263    
     51300  -3636153.4     -3636188.7      35.245971      621.12688     -3586.7975    
     51400  -3636153.5     -3636188        34.524455      608.41186     -3346.5292    
     51500  -3636153.6     -3636187.7      34.019115      599.50644     -6068.1773    
     51600  -3636153.8     -3636188.7      34.876963      614.62398     -3734.5249    
     51700  -3636154       -3636189.1      35.0201        617.14643     -2059.9753    
     51800  -3636154.3     -3636187.7      33.354845      587.80025     -4019.2105    
     51900  -3636154.7     -3636188.3      33.605072      592.20991     -6522.2581    
     52000  -3636155       -3636188.3      33.325667      587.28606     -3250.6669    
     52100  -3636155.4     -3636190.1      34.707855      611.64386     -2533.155     
     52200  -3636155.9     -3636190.5      34.59849       609.71655     -5930.6968    
     52300  -3636156.3     -3636189.3      33.03187       582.10858     -4986.3622    
     52400  -3636156.6     -3636189.8      33.228237      585.56908     -3356.2116    
     52500  -3636156.9     -3636190.7      33.787007      595.41609     -6875.4546    
     52600  -3636157.2     -3636189.1      31.930289      562.69581     -2660.5217    
     52700  -3636157.4     -3636191.2      33.752057      594.80017     -5558.178     
     52800  -3636157.6     -3636190.9      33.319758      587.18192     -5144.7724    
     52900  -3636157.7     -3636189.6      31.987924      563.7115      -6096.0171    
     53000  -3636157.7     -3636191.3      33.594081      592.01623     -5793.7743    
     53100  -3636157.7     -3636190        32.304891      569.2973      -3085.8155    
     53200  -3636157.6     -3636192.2      34.599318      609.73114     -7253.6385    
     53300  -3636157.6     -3636190.6      32.967784      580.97921     -2514.4676    
     53400  -3636157.6     -3636191.1      33.496142      590.29028     -3810.2344    
     53500  -3636157.6     -3636191        33.470812      589.8439      -5461.9072    
     53600  -3636157.5     -3636191.3      33.770021      595.11674     -2343.9786    
     53700  -3636157.5     -3636190.9      33.325472      587.28262     -8217.9566    
     53800  -3636157.5     -3636191        33.465179      589.74462     -5298.5589    
     53900  -3636157.5     -3636191.1      33.59689       592.06573     -6661.3343    
     54000  -3636157.5     -3636193.1      35.590706      627.20202     -4534.5604    
     54100  -3636157.5     -3636192.1      34.58174       609.42137     -5077.8626    
     54200  -3636157.5     -3636190.4      32.845897      578.83124     -3990.8483    
     54300  -3636157.5     -3636189.3      31.774574      559.95172     -3856.8504    
     54400  -3636157.5     -3636190        32.501826      572.76781     -5182.3439    
     54500  -3636157.4     -3636190.4      33.010576      581.73333     -5537.0811    
     54600  -3636157.4     -3636189.4      32.023977      564.34685     -4788.6204    
     54700  -3636157.2     -3636190.4      33.164177      584.44018     -4909.5352    
     54800  -3636157       -3636188.6      31.548848      555.97383     -5985.9303    
     54900  -3636156.8     -3636189.4      32.625184      574.94171     -4259.0738    
     55000  -3636156.5     -3636193.7      37.180909      655.22559     -2860.8652    
     55100  -3636156.1     -3636190.7      34.58353       609.45293     -7314.5655    
     55200  -3636155.6     -3636190        34.387354      605.99579     -4380.6149    
     55300  -3636154.9     -3636189.2      34.269792      603.92403      779.45904    
     55400  -3636154.3     -3636188.1      33.778007      595.25747     -11875.76     
     55500  -3636153.7     -3636188.6      34.881504      614.70401     -3057.5207    
     55600  -3636153.2     -3636187.3      34.121607      601.31262     -1848.4146    
     55700  -3636152.8     -3636190.1      37.273297      656.8537      -5538.1837    
     55800  -3636152.6     -3636187.2      34.580565      609.40066     -2112.5374    
     55900  -3636152.6     -3636189.2      36.624355      645.41763     -2486.3356    
     56000  -3636152.8     -3636188.5      35.760401      630.19248     -4468.1073    
     56100  -3636153.1     -3636185.3      32.225528      567.89871     -4218.2822    
     56200  -3636153.7     -3636189.6      35.938186      633.32553     -4403.586     
     56300  -3636154.4     -3636188.8      34.378578      605.84112     -3289.0075    
     56400  -3636155.3     -3636187.8      32.538475      573.41366     -5706.0638    
     56500  -3636156       -3636189.4      33.419584      588.94112     -4666.4071    
     56600  -3636156.6     -3636189        32.472464      572.25037     -4386.8247    
     56700  -3636156.9     -3636190.7      33.818089      595.96384     -4344.8595    
     56800  -3636157.1     -3636189.7      32.530257      573.26885     -4850.6481    
     56900  -3636157.3     -3636189.3      32.035458      564.54917     -3435.8814    
     57000  -3636157.4     -3636190.5      33.112025      583.52112     -3849.9141    
     57100  -3636157.5     -3636189.8      32.386414      570.73395     -6633.8789    
     57200  -3636157.5     -3636190.1      32.604335      574.57429     -4254.8939    
     57300  -3636157.6     -3636190.4      32.869833      579.25306     -3959.1047    
     57400  -3636157.6     -3636189.8      32.222168      567.8395      -6358.4025    
     57500  -3636157.6     -3636189.5      31.844         561.17519     -3150.6614    
     57600  -3636157.7     -3636191.5      33.790984      595.48618     -5342.0286    
     57700  -3636157.8     -3636192.1      34.311136      604.65262     -4534.2341    
     57800  -3636157.8     -3636189        31.174002      549.36806     -4769.6442    
     57900  -3636157.9     -3636190.2      32.291389      569.05935     -1068.8585    
     58000  -3636158       -3636191        32.985496      581.29135     -6382.1679    
     58100  -3636158.2     -3636189.7      31.579482      556.51368     -5823.3936    
     58200  -3636158.3     -3636191.7      33.423133      589.00367     -4579.9974    
     58300  -3636158.5     -3636191.8      33.238225      585.7451      -7331.6463    
     58400  -3636158.7     -3636191.2      32.450583      571.86478     -7238.5938    
     58500  -3636159       -3636191        31.969011      563.3782      -5574.8874    
     58600  -3636159.3     -3636191.7      32.392724      570.84515     -3010.5382    
     58700  -3636159.6     -3636190.2      30.565343      538.64188     -6720.7621    
     58800  -3636159.9     -3636190.9      30.994503      546.20481     -4339.7544    
     58900  -3636160.2     -3636193.2      32.998886      581.52731     -7126.6567    
     59000  -3636160.4     -3636192.5      32.10252       565.73098     -4305.4365    
     59100  -3636160.6     -3636192.4      31.745493      559.43924     -5457.3778    
     59200  -3636160.8     -3636191.9      31.062353      547.40051     -3468.7323    
     59300  -3636161       -3636193.1      32.027017      564.40043     -2677.509     
     59400  -3636161.2     -3636193.5      32.278181      568.82659     -7910.258     
     59500  -3636161.4     -3636191.9      30.509101      537.65075     -6495.8117    
     59600  -3636161.5     -3636193        31.496419      555.04988     -3190.8074    
     59700  -3636161.5     -3636192.9      31.383538      553.06063     -4690.5043    
     59800  -3636161.5     -3636192.9      31.40948       553.51779     -7804.6454    
     59900  -3636161.3     -3636194.1      32.812014      578.23413     -3289.789     
     60000  -3636161.1     -3636193.8      32.752018      577.17685     -4976.7152    
     60100  -3636160.7     -3636193.6      32.879403      579.42172     -6954.9572    
     60200  -3636160.2     -3636192.5      32.2673        568.63485     -4029.4394    
     60300  -3636159.7     -3636194.2      34.525826      608.43602     -3876.5934    
     60400  -3636159.1     -3636189.8      30.660012      540.3102      -2955.2468    
     60500  -3636158.6     -3636190.7      32.105041      565.7754      -4059.0447    
     60600  -3636158.1     -3636190.1      32.016917      564.22244     -5216.9562    
     60700  -3636157.7     -3636188.5      30.812991      543.00608     -3025.9212    
     60800  -3636157.4     -3636190.2      32.792245      577.88576     -6177.0173    
     60900  -3636157.2     -3636191.6      34.443421      606.98383     -4236.4935    
     61000  -3636157.1     -3636191        33.898776      597.38576     -6006.8089    
     61100  -3636157.1     -3636188.6      31.504793      555.19747     -5590.9594    
     61200  -3636157.2     -3636190.4      33.153121      584.24535     -4439.0202    
     61300  -3636157.4     -3636189.4      32.008974      564.08246     -4994.3674    
     61400  -3636157.7     -3636191.3      33.571486      591.61803     -5113.0946    
     61500  -3636158.1     -3636190.7      32.550329      573.62255     -4506.9834    
     61600  -3636158.7     -3636191.1      32.407114      571.09874     -5482.1593    
     61700  -3636159.4     -3636189.5      30.171429      531.70008     -6517.0434    
     61800  -3636160       -3636190.9      30.819835      543.1267      -3932.8837    
     61900  -3636160.7     -3636192.6      31.990689      563.76022     -6248.4347    
     62000  -3636161.1     -3636192.2      31.042718      547.05448     -7068.078     
     62100  -3636161.4     -3636191.8      30.331162      534.51498     -3005.2137    
     62200  -3636161.6     -3636191.7      30.070765      529.92611     -5816.9166    
     62300  -3636161.7     -3636192.6      30.925045      544.98078     -4223.0898    
     62400  -3636161.7     -3636193.2      31.529785      555.63789     -7085.0078    
     62500  -3636161.6     -3636192.5      30.933359      545.12729     -2642.9071    
     62600  -3636161.5     -3636192.5      31.048166      547.1505      -6426.5993    
     62700  -3636161.3     -3636192.2      30.864875      543.92042     -7547.0792    
     62800  -3636161.1     -3636191.7      30.650948      540.15046     -2322.0449    
     62900  -3636160.8     -3636191.9      31.005034      546.39038     -4730.7926    
     63000  -3636160.6     -3636192.2      31.663742      557.99856     -4856.4741    
     63100  -3636160.3     -3636192.5      32.211499      567.65148     -4392.4285    
     63200  -3636160.1     -3636190.2      30.09771       530.40095     -7208.0683    
     63300  -3636159.8     -3636192.4      32.54055       573.45023     -6400.2547    
     63400  -3636159.6     -3636191.4      31.779099      560.03145     -2155.8691    
     63500  -3636159.4     -3636191        31.641951      557.61455     -3544.3208    
     63600  -3636159.2     -3636192        32.789447      577.83645     -4082.1252    
     63700  -3636159.1     -3636193.5      34.479256      607.61534     -2005.9659    
     63800  -3636159       -3636191.6      32.575736      574.07029     -6631.0162    
     63900  -3636159       -3636191.1      32.079305      565.32188     -2260.8114    
     64000  -3636159.1     -3636192.2      33.162116      584.40387     -5163.4964    
     64100  -3636159.3     -3636190.3      31.025         546.74225     -6631.3113    
     64200  -3636159.7     -3636190.7      31.036653      546.94761     -6301.7612    
     64300  -3636160.2     -3636193.6      33.401465      588.62182     -5298.3886    
     64400  -3636160.9     -3636192.7      31.810398      560.58302     -4359.591     
     64500  -3636161.7     -3636193.6      31.896374      562.09814     -5571.7316    
     64600  -3636162.4     -3636192.5      30.146875      531.26738     -4990.1954    
     64700  -3636163       -3636194.6      31.618184      557.19571     -4923.8359    
     64800  -3636163.4     -3636193.5      30.068008      529.87753     -3943.8763    
     64900  -3636163.6     -3636195.1      31.426396      553.8159      -5117.4861    
     65000  -3636163.8     -3636194.7      30.964658      545.67886     -5844.0221    
     65100  -3636163.8     -3636194.4      30.618127      539.57206     -2729.7721    
     65200  -3636163.7     -3636194.1      30.443922      536.50212     -3995.938     
     65300  -3636163.5     -3636195.5      31.986459      563.68569     -3120.0538    
     65400  -3636163.2     -3636192.4      29.16301       513.92907     -6255.7223    
     65500  -3636162.9     -3636193.2      30.310519      534.15121     -4354.4928    
     65600  -3636162.4     -3636193.7      31.285257      551.32866     -5488.0052    
     65700  -3636162       -3636192        30.032471      529.25127     -5991.8584    
     65800  -3636161.6     -3636191.8      30.24974       533.08012     -6133.4324    
     65900  -3636161.2     -3636192.8      31.589971      556.69852     -3758.7736    
     66000  -3636160.9     -3636193.7      32.852076      578.94014     -6690.4962    
     66100  -3636160.6     -3636193.1      32.524873      573.17396     -2998.1833    
     66200  -3636160.4     -3636192        31.584391      556.60019     -6026.02      
     66300  -3636160.3     -3636192.7      32.352465      570.13567     -4702.0168    
     66400  -3636160.3     -3636194.2      33.857284      596.65455     -5137.1903    
     66500  -3636160.4     -3636193.2      32.762909      577.36878     -6177.7271    
     66600  -3636160.5     -3636192.5      31.928104      562.65732     -2847.0019    
     66700  -3636160.7     -3636193.1      32.401028      570.99148     -3394.1636    
     66800  -3636160.9     -3636191        30.12283       530.84363     -6270.2132    
     66900  -3636161       -3636191.2      30.198105      532.17017     -2832.2113    
     67000  -3636161.2     -3636193.2      31.997383      563.8782      -5299.782     
     67100  -3636161.4     -3636193.9      32.455383      571.94935     -7298.1326    
     67200  -3636161.7     -3636193.7      32.048203      564.77379     -5626.9286    
     67300  -3636161.9     -3636193.6      31.65134       557.78        -5606.5124    
     67400  -3636162.2     -3636194        31.85848       561.43035     -5238.728     
     67500  -3636162.4     -3636194.2      31.743313      559.40082     -7005.2878    
     67600  -3636162.7     -3636193.1      30.490634      537.3253      -7411.0374    
     67700  -3636162.9     -3636194.2      31.293698      551.47741     -5753.4461    
     67800  -3636163.1     -3636196.5      33.428916      589.10558     -6798.6894    
     67900  -3636163.3     -3636196        32.693424      576.14428     -5836.6956    
     68000  -3636163.5     -3636194.4      30.900737      544.5524      -5206.0502    
     68100  -3636163.7     -3636195.3      31.551231      556.01583     -5265.0252    
     68200  -3636163.8     -3636193        29.17054       514.06177     -6382.3689    
     68300  -3636163.9     -3636194.8      30.891647      544.39222     -4818.0862    
     68400  -3636164       -3636194.1      30.030127      529.20995     -6743.3854    
     68500  -3636164.1     -3636194.8      30.710843      541.20598     -5766.9067    
     68600  -3636164.1     -3636195.6      31.515022      555.37773     -6655.0292    
     68700  -3636164.1     -3636194.7      30.627537      539.7379      -5145.7087    
     68800  -3636164.1     -3636193.9      29.886179      526.67321     -6285.1759    
     68900  -3636164       -3636194        30.009706      528.85008     -5622.3263    
     69000  -3636163.8     -3636192.9      29.070159      512.29279     -7375.9443    
     69100  -3636163.5     -3636194.5      30.977263      545.901       -4849.1258    
     69200  -3636162.9     -3636192.7      29.754167      524.34682     -3812.0911    
     69300  -3636162       -3636193.1      31.081901      547.74499     -6039.5447    
     69400  -3636161.1     -3636192.6      31.555759      556.09561     -6020.0147    
     69500  -3636160.3     -3636191.4      31.081615      547.73994     -4083.9276    
     69600  -3636159.8     -3636192        32.197286      567.40101     -6879.3058    
     69700  -3636159.5     -3636192.4      32.955374      580.76053     -5713.7674    
     69800  -3636159.3     -3636191.8      32.470334      572.21285     -7420.6137    
     69900  -3636159.4     -3636191.6      32.241154      568.17408     -5251.2121    
     70000  -3636159.5     -3636190.8      31.26698       551.00657     -4838.9497    
     70100  -3636159.8     -3636191.6      31.798003      560.36459     -7709.5254    
     70200  -3636160.2     -3636191.2      30.980622      545.96018     -4913.1431    
     70300  -3636160.7     -3636193.8      33.086395      583.06945     -4784.7688    
     70400  -3636161.3     -3636192.8      31.464653      554.49008     -7026.9782    
     70500  -3636161.9     -3636192.9      31.011795      546.50954     -5884.9186    
     70600  -3636162.4     -3636191.6      29.175893      514.1561      -3149.7273    
     70700  -3636162.8     -3636193.3      30.500206      537.49399     -7683.5277    
     70800  -3636163.1     -3636193.4      30.277384      533.56728     -7956.5169    
     70900  -3636163.4     -3636192.1      28.703981      505.83978     -2388.2696    
     71000  -3636163.5     -3636193.4      29.812457      525.37405     -7575.0354    
     71100  -3636163.7     -3636193.6      29.901815      526.94876     -6231.7392    
     71200  -3636163.7     -3636194.8      31.096606      548.00412     -6358.2551    
     71300  -3636163.8     -3636193.3      29.56807       521.0673      -2842.4845    
     71400  -3636163.8     -3636195.3      31.521743      555.49617     -7711.8945    
     71500  -3636163.8     -3636193.6      29.798652      525.13077     -5672.7559    
     71600  -3636163.9     -3636194.9      30.988291      546.09534     -4454.4149    
     71700  -3636164       -3636194.8      30.844495      543.56127     -6202.7029    
     71800  -3636164.1     -3636193.4      29.289095      516.15103     -5437.5561    
     71900  -3636164.3     -3636194.3      30.008137      528.82245     -4331.5809    
     72000  -3636164.5     -3636193.2      28.665494      505.16153     -6180.6792    
     72100  -3636164.8     -3636195.6      30.80709       542.9021      -8354.5307    
     72200  -3636165.2     -3636196        30.743095      541.77433     -4746.9022    
     72300  -3636165.8     -3636194.2      28.359403      499.76739     -6098.2007    
     72400  -3636166.5     -3636195.4      28.892869      509.16848     -3393.9643    
     72500  -3636167.2     -3636196.1      28.911127      509.49023     -4663.2932    
     72600  -3636167.7     -3636196.1      28.413472      500.72024     -7954.4077    
     72700  -3636168.1     -3636197.9      29.854755      526.11945     -6337.687     
     72800  -3636168.3     -3636196.6      28.253043      497.89306     -7549.9977    
     72900  -3636168.4     -3636196.1      27.700823      488.16149     -6465.5129    
     73000  -3636168.4     -3636197.1      28.646437      504.8257      -4870.8551    
     73100  -3636168.3     -3636196.5      28.222437      497.35369     -5521.2515    
     73200  -3636168.1     -3636197.5      29.440052      518.81129     -7306.48      
     73300  -3636167.8     -3636198.8      31.02525       546.74664     -6363.2571    
     73400  -3636167.5     -3636197.1      29.639629      522.32835     -6351.1888    
     73500  -3636167.1     -3636196.4      29.312217      516.5585      -8333.4663    
     73600  -3636166.7     -3636197.3      30.645057      540.04664     -5404.0192    
     73700  -3636166.3     -3636195.7      29.414262      518.35679     -6994.9966    
     73800  -3636165.9     -3636195.5      29.549568      520.74124     -5933.0606    
     73900  -3636165.7     -3636195.3      29.587869      521.4162      -5491.5516    
     74000  -3636165.5     -3636194.8      29.361033      517.41876     -6357.0109    
     74100  -3636165.3     -3636194.6      29.258131      515.60535     -4757.215     
     74200  -3636165.2     -3636196.7      31.482664      554.80749     -6932.9355    
     74300  -3636165.2     -3636193        27.787675      489.69205     -6674.5556    
     74400  -3636165.2     -3636196        30.853427      543.71867     -5920.5594    
     74500  -3636165.2     -3636194.6      29.469381      519.32814     -6258.1344    
     74600  -3636165.2     -3636194.7      29.582174      521.31584     -5083.7388    
     74700  -3636165.2     -3636195.4      30.203249      532.26082     -5519.609     
     74800  -3636165.2     -3636193.9      28.675118      505.33114     -7892.0428    
     74900  -3636165.2     -3636196        30.798965      542.75892     -2501.5471    
     75000  -3636165.3     -3636195.3      30.056368      529.6724      -5683.387     
     75100  -3636165.3     -3636193.8      28.481515      501.91934     -7036.8634    
     75200  -3636165.3     -3636194.2      28.872983      508.81804     -4105.5309    
     75300  -3636165.3     -3636194.7      29.386219      517.8626      -6261.532     
     75400  -3636165.3     -3636194.9      29.599018      521.61268     -7502.1739    
     75500  -3636165.3     -3636195.8      30.544388      538.2726      -4574.196     
     75600  -3636165.3     -3636196.8      31.545722      555.91873     -6756.3964    
     75700  -3636165.2     -3636195.1      29.914512      527.17251     -4996.9077    
     75800  -3636165.2     -3636195.8      30.550063      538.3726      -5626.6987    
     75900  -3636165.3     -3636195.9      30.626948      539.72751     -7247.9182    
     76000  -3636165.4     -3636195.7      30.207017      532.32724     -3267.1508    
     76100  -3636165.7     -3636196.3      30.600979      539.26987     -7697.1512    
     76200  -3636166       -3636195.1      29.073151      512.34552     -5535.3853    
     76300  -3636166.4     -3636194.9      28.558304      503.27256     -5253.5304    
     76400  -3636166.8     -3636196.8      30.007035      528.80302     -4687.3491    
     76500  -3636167.2     -3636195.6      28.356927      499.72377     -6138.1834    
     76600  -3636167.6     -3636195.4      27.830173      490.44098     -5968.8632    
     76700  -3636167.9     -3636196.9      29.062465      512.15722     -1182.0985    
     76800  -3636168.1     -3636195.6      27.50471       484.70547     -5488.0478    
     76900  -3636168.3     -3636197.2      28.969246      510.51443     -5794.1996    
     77000  -3636168.4     -3636195.7      27.295326      481.01556     -5618.3598    
     77100  -3636168.4     -3636196.9      28.470455      501.72444     -8993.865     
     77200  -3636168.3     -3636198.1      29.725045      523.83361     -5858.827     
     77300  -3636168.2     -3636196.2      28.044631      494.22028     -7484.222     
     77400  -3636168       -3636196.6      28.659606      505.05778     -8179.3773    
     77500  -3636167.6     -3636197.6      29.990298      528.50807     -6355.9669    
     77600  -3636167.2     -3636195.9      28.694978      505.68112     -6871.5291    
     77700  -3636166.6     -3636195.7      29.094063      512.71405     -6983.1223    
     77800  -3636165.9     -3636196.4      30.472495      537.00565     -6471.7268    
     77900  -3636165.3     -3636193.9      28.570076      503.48002     -4937.1622    
     78000  -3636164.8     -3636195.3      30.544345      538.27184     -5832.3229    
     78100  -3636164.4     -3636195.9      31.454734      554.31529     -4151.7533    
     78200  -3636164.2     -3636195.3      31.019755      546.64982     -7162.1043    
     78300  -3636164.2     -3636194.7      30.418864      536.06054     -6782.0991    
     78400  -3636164.3     -3636193.5      29.220288      514.93846     -7074.9761    
     78500  -3636164.5     -3636194        29.520553      520.22993     -7807.9703    
     78600  -3636164.7     -3636196.5      31.718176      558.95784     -3869.3446    
     78700  -3636165.1     -3636194.6      29.47897       519.49713     -4922.5789    
     78800  -3636165.5     -3636196        30.479205      537.1239      -8040.7627    
     78900  -3636165.9     -3636195.6      29.672013      522.89905     -6533.1316    
     79000  -3636166.3     -3636196.9      30.632319      539.82218     -5768.3322    
     79100  -3636166.6     -3636198        31.367083      552.77065     -8580.567     
     79200  -3636166.9     -3636196.4      29.5498        520.74534     -5802.4341    
     79300  -3636167.1     -3636196.2      29.113429      513.05532     -7987.611     
     79400  -3636167.3     -3636197.2      29.861289      526.23459     -6585.3722    
     79500  -3636167.5     -3636197.8      30.376781      535.31892     -7187.6009    
     79600  -3636167.6     -3636196.8      29.154932      513.78672     -4804.0154    
     79700  -3636167.8     -3636197.5      29.702168      523.43046     -5944.3224    
     79800  -3636168       -3636197.3      29.271327      515.8379      -7921.5799    
     79900  -3636168.2     -3636198.4      30.173236      531.73191     -5574.3267    
     80000  -3636168.4     -3636198.4      30.087716      530.22483     -8299.2998    
     80100  -3636168.5     -3636196.6      28.09529       495.11303     -6781.9494    
     80200  -3636168.6     -3636197.8      29.197947      514.54476     -5149.2574    
     80300  -3636168.6     -3636197.9      29.251246      515.48403     -8159.5806    
     80400  -3636168.6     -3636198.5      29.845315      525.95309     -5821.0626    
     80500  -3636168.7     -3636198.4      29.687812      523.17747     -6034.7016    
     80600  -3636168.7     -3636197.9      29.175833      514.15504     -7863.172     
     80700  -3636168.8     -3636198.7      29.888422      526.71275     -4649.4501    
     80800  -3636168.9     -3636197.7      28.785307      507.27295     -5776.2103    
     80900  -3636169.1     -3636197.4      28.34649       499.53985     -6780.411     
     81000  -3636169.2     -3636198.6      29.317646      516.65417     -6726.5263    
     81100  -3636169.5     -3636198.7      29.264306      515.71418     -3542.1045    
     81200  -3636169.8     -3636198.7      28.973547      510.59024     -8128.4834    
     81300  -3636170.1     -3636197.6      27.489393      484.43553     -5321.1865    
     81400  -3636170.4     -3636198.7      28.237049      497.61121     -6176.4213    
     81500  -3636170.7     -3636197.4      26.747408      471.3598      -5472.2058    
     81600  -3636170.9     -3636199.2      28.265648      498.11519     -5388.1434    
     81700  -3636171.2     -3636199.9      28.715993      506.05146     -8178.113     
     81800  -3636171.3     -3636198.5      27.203388      479.39537     -6931.0739    
     81900  -3636171.4     -3636198.2      26.762798      471.63102     -6528.6269    
     82000  -3636171.5     -3636197.8      26.360228      464.53667     -4947.2862    
     82100  -3636171.5     -3636198.3      26.85374       473.23365     -5954.9857    
     82200  -3636171.4     -3636199        27.674436      487.69648     -6791.6058    
     82300  -3636171.1     -3636199.8      28.635883      504.63971     -6999.008     
     82400  -3636170.8     -3636198        27.159306      478.61853     -5706.7111    
     82500  -3636170.4     -3636198.8      28.485919      501.99694     -4049.1185    
     82600  -3636169.8     -3636196.8      27.030634      476.35099     -8178.5436    
     82700  -3636169.1     -3636197.9      28.82932       508.04858     -4358.321     
     82800  -3636168.5     -3636199.2      30.626914      539.72692     -7522.6258    
     82900  -3636168.1     -3636196.5      28.450053      501.36489     -5274.3734    
     83000  -3636167.7     -3636195.8      28.035681      494.06256     -6755.6136    
     83100  -3636167.5     -3636196.1      28.612884      504.23441     -6496.0528    
     83200  -3636167.4     -3636195.1      27.789503      489.72426     -3804.3419    
     83300  -3636167.3     -3636196.2      28.937474      509.95454     -6582.3546    
     83400  -3636167.3     -3636195.7      28.419812      500.83197     -3294.9133    
     83500  -3636167.4     -3636196.6      29.17588       514.15588     -4730.8589    
     83600  -3636167.6     -3636197        29.450919      519.00278     -4165.4635    
     83700  -3636167.8     -3636196.9      29.030014      511.58534     -2013.6356    
     83800  -3636168.1     -3636197.6      29.510218      520.04779     -5098.895     
     83900  -3636168.5     -3636198.5      30.028725      529.18525     -3909.1285    
     84000  -3636168.9     -3636197.1      28.223234      497.36774     -3497.1524    
     84100  -3636169.4     -3636198.5      29.138443      513.49613     -4010.8787    
     84200  -3636169.8     -3636199        29.273465      515.87558     -5513.1942    
     84300  -3636170.1     -3636199.7      29.572814      521.15091     -6106.0999    
     84400  -3636170.4     -3636198.6      28.196602      496.89841     -6891.6082    
     84500  -3636170.5     -3636198        27.473651      484.15811     -4364.5024    
     84600  -3636170.6     -3636196.7      26.019992      458.54082     -4538.9415    
     84700  -3636170.7     -3636197.6      26.9693        475.27012     -7225.2421    
     84800  -3636170.6     -3636199.4      28.805006      507.62011     -5269.7751    
     84900  -3636170.6     -3636197        26.45492       466.20539     -4386.4711    
     85000  -3636170.4     -3636198.8      28.39832       500.45323     -7452.5005    
     85100  -3636170.3     -3636199.2      28.880348      508.94782     -6179.0141    
     85200  -3636170.2     -3636197.7      27.547452      485.45869     -3553.8473    
     85300  -3636170       -3636196.7      26.625721      469.21536     -5359.3305    
     85400  -3636169.9     -3636198        28.131841      495.75715     -6125.1483    
     85500  -3636169.8     -3636199.5      29.742136      524.13481     -1917.414     
     85600  -3636169.7     -3636198.8      29.116055      513.1016      -3943.1946    
     85700  -3636169.7     -3636196.9      27.19882       479.31486     -5110.6442    
     85800  -3636169.8     -3636199.2      29.392034      517.96508     -4584.3647    
     85900  -3636169.9     -3636197.6      27.742521      488.89632     -4934.3261    
     86000  -3636170.1     -3636198.1      28.086526      494.9586      -5629.2191    
     86100  -3636170.3     -3636198.1      27.777833      489.5186      -2382.3899    
     86200  -3636170.5     -3636198.1      27.519903      484.97321     -7192.7571    
     86300  -3636170.9     -3636198.7      27.823025      490.31501     -2875.3608    
     86400  -3636171.3     -3636197        25.661906      452.23039     -3404.3656    
     86500  -3636171.9     -3636199.6      27.694355      488.04751     -5956.8024    
     86600  -3636172.5     -3636199.5      26.950427      474.93754     -1995.0094    
[...]
    228700  -3636199.7     -3636216.1      16.354297      288.20581     -517.6558     
    228800  -3636199.6     -3636215.5      15.890021      280.02404     -613.27422    
    228900  -3636199.5     -3636215.7      16.281345      286.9202      -494.34159    
    229000  -3636199.2     -3636215.9      16.664445      293.67143      859.34667    
    229100  -3636199       -3636215.9      16.91172       298.02907      610.32425    
    229200  -3636198.6     -3636215.9      17.287045      304.64329     -3723.2386    
    229300  -3636198.3     -3636215.9      17.647475      310.99501      2874.1006    
    229400  -3636198       -3636215.3      17.285901      304.62313      533.97465    
    229500  -3636197.8     -3636215.2      17.473604      307.93093     -637.86996    
    229600  -3636197.7     -3636215.6      17.934114      316.04634      712.72437    
    229700  -3636197.6     -3636215.5      17.850041      314.56476      6.0827978    
    229800  -3636197.6     -3636214.8      17.211934      303.31962     -1599.8209    
    229900  -3636197.6     -3636215        17.341181      305.5973       2015.2428    
    230000  -3636197.6     -3636215.5      17.900919      315.46136      172.58468    
    230100  -3636197.7     -3636215        17.286333      304.63074      833.1204     
    230200  -3636197.7     -3636214.3      16.579511      292.17467     -86.38804     
    230300  -3636197.8     -3636214.4      16.564508      291.91027      1065.6361    
    230400  -3636197.9     -3636215.1      17.235167      303.72905      1881.6648    
    230500  -3636198       -3636215.1      17.099427      301.33696     -2268.2229    
    230600  -3636198.2     -3636215.2      16.968822      299.03535      998.58716    
    230700  -3636198.3     -3636215.9      17.537085      309.04965      108.42529    
    230800  -3636198.4     -3636215.4      17.053556      300.52859      366.90962    
    230900  -3636198.5     -3636215.1      16.627125      293.01375     -1441.7548    
    231000  -3636198.6     -3636215.5      16.928116      298.31801      785.15549    
    231100  -3636198.7     -3636215.5      16.795186      295.97543     -44.945085    
    231200  -3636198.8     -3636215.3      16.492666      290.64422      1408.3588    
    231300  -3636198.9     -3636215.2      16.28098       286.91377     -790.92317    
    231400  -3636199       -3636215.7      16.713642      294.53841      351.61515    
    231500  -3636199.1     -3636215.9      16.792475      295.92765     -2055.5075    
    231600  -3636199.1     -3636215.3      16.157011      284.7291       1509.2612    
    231700  -3636199.2     -3636215.4      16.167724      284.91789     -1217.063     
    231800  -3636199.2     -3636215.7      16.456157      290.00085     -1164.4093    
    231900  -3636199.2     -3636215.6      16.377647      288.61729     -225.27325    
    232000  -3636199.2     -3636215.8      16.638734      293.21833     -127.60759    
    232100  -3636199.1     -3636215.7      16.587757      292.31998      248.95923    
    232200  -3636199       -3636214.4      15.406729      271.50715     -1742.4498    
    232300  -3636198.8     -3636215.5      16.730031      294.82723      2015.6056    
    232400  -3636198.5     -3636215.5      16.928572      298.32605     -2508.2765    
    232500  -3636198.3     -3636215.2      16.917844      298.13698      823.25201    
    232600  -3636198.1     -3636215        16.90204       297.85847      1341.0142    
    232700  -3636197.8     -3636214.7      16.902843      297.87263     -2789.3723    
    232800  -3636197.6     -3636216        18.411182      324.45354      4387.4181    
    232900  -3636197.4     -3636215.4      17.982064      316.89135      307.41865    
    233000  -3636197.3     -3636215.2      17.896171      315.37769     -642.34345    
    233100  -3636197.2     -3636215.2      17.925625      315.89675      190.90014    
    233200  -3636197.2     -3636214.2      17.010582      299.77127     -1424.2148    
    233300  -3636197.3     -3636215.1      17.841198      314.40892     -850.30193    
    233400  -3636197.3     -3636214.5      17.124231      301.77406      1002.4578    
    233500  -3636197.5     -3636215.2      17.652384      311.08152      421.33757    
    233600  -3636197.8     -3636214.7      16.905673      297.9225       26.608621    
    233700  -3636198.2     -3636215.8      17.564021      309.52433      202.06248    
    233800  -3636198.6     -3636215.1      16.431231      289.56159     -971.85031    
    233900  -3636199       -3636215.3      16.290736      287.0857      -211.16862    
    234000  -3636199.3     -3636216.3      17.002124      299.62223     -527.49574    
    234100  -3636199.5     -3636216.6      17.087032      301.11852     -668.10907    
    234200  -3636199.6     -3636215.8      16.153117      284.66049     -316.71341    
    234300  -3636199.7     -3636216.5      16.816344      296.34829      359.25805    
    234400  -3636199.7     -3636216.4      16.643108      293.29542      883.32715    
    234500  -3636199.6     -3636216.2      16.583487      292.24473      2467.2813    
    234600  -3636199.6     -3636216.4      16.806572      296.17609     -218.82057    
    234700  -3636199.5     -3636216.3      16.751563      295.20667     -648.37716    
    234800  -3636199.4     -3636215.8      16.359484      288.29721     -102.52001    
    234900  -3636199.3     -3636215.9      16.577027      292.13089     -267.95018    
    235000  -3636199.2     -3636216.1      16.965656      298.97956      477.74311    
    235100  -3636199       -3636216        16.924954      298.26228     -432.09425    
    235200  -3636198.9     -3636215.5      16.657957      293.5571       1308.1519    
    235300  -3636198.7     -3636216.1      17.410663      306.82176     -557.61629    
    235400  -3636198.5     -3636215.5      16.994733      299.49198      45.82293     
    235500  -3636198.3     -3636216.3      17.991213      317.05257      1287.7073    
    235600  -3636198.1     -3636215        16.899985      297.82226      880.99218    
    235700  -3636197.8     -3636215.1      17.299443      304.86177     -734.04895    
    235800  -3636197.5     -3636215.5      17.963583      316.56566     -2231.3983    
    235900  -3636197.2     -3636215.4      18.175495      320.30011      2435.4138    
    236000  -3636196.9     -3636214.4      17.537223      309.05207     -2093.0559    
    236100  -3636196.6     -3636214.8      18.232798      321.30994     -765.8969     
    236200  -3636196.3     -3636214.5      18.206681      320.84968      4014.85      
    236300  -3636196.2     -3636213.4      17.157977      302.36876     -1391.4219    
    236400  -3636196.1     -3636214.5      18.4099        324.43094      282.67095    
    236500  -3636196       -3636214.3      18.315359      322.76488     -1815.314     
    236600  -3636196.1     -3636215        18.939392      333.76199     -777.6586     
    236700  -3636196.2     -3636214.7      18.431584      324.81307      1917.3798    
    236800  -3636196.6     -3636214.5      17.916358      315.73343      89.605712    
    236900  -3636197.2     -3636214        16.790943      295.90066     -512.75839    
    237000  -3636197.8     -3636215.8      17.98675       316.97393      913.45442    
    237100  -3636198.3     -3636215.8      17.549222      309.26354     -1151.2324    
    237200  -3636198.6     -3636215.5      16.904912      297.90909      1875.0517    
    237300  -3636198.8     -3636215.3      16.525479      291.22249     -2083.7456    
    237400  -3636199       -3636215.9      16.876504      297.40846      2196.4296    
    237500  -3636199.2     -3636216.1      16.954025      298.77458      1019.6071    
    237600  -3636199.3     -3636216.2      16.95879       298.85855     -3577.1924    
    237700  -3636199.4     -3636216.5      17.162202      302.44322      1588.8048    
    237800  -3636199.4     -3636215.3      15.919339      280.5407       1693.9376    
    237900  -3636199.5     -3636215.9      16.446866      289.83711     -1503.3423    
    238000  -3636199.4     -3636216.6      17.158245      302.37349     -183.70481    
    238100  -3636199.3     -3636215.5      16.126744      284.19572     -1113.954     
    238200  -3636199.2     -3636216.1      16.875274      297.38679      891.4872     
    238300  -3636199.1     -3636215.4      16.281867      286.9294      -284.91759    
    238400  -3636198.9     -3636215.1      16.171517      284.98473     -278.52556    
    238500  -3636198.6     -3636216.1      17.490193      308.22329     -2077.5225    
    238600  -3636198.4     -3636215.7      17.353267      305.81028      1173.2314    
    238700  -3636198.1     -3636215.2      17.076542      300.93366      1640.773     
    238800  -3636197.8     -3636214.5      16.699971      294.29748     -1218.7481    
    238900  -3636197.6     -3636215.4      17.757303      312.93047      1269.7637    
    239000  -3636197.5     -3636214.3      16.77962       295.70112      1028.409     
    239100  -3636197.4     -3636214        16.631188      293.08535     -286.61988    
    239200  -3636197.3     -3636215.7      18.424974      324.69659      1778.16      
    239300  -3636197.3     -3636214.2      16.912164      298.0369      -1089.2565    
    239400  -3636197.3     -3636215        17.711746      312.12763      935.13947    
    239500  -3636197.3     -3636215.1      17.729427      312.43921      342.30939    
    239600  -3636197.5     -3636215.4      17.900419      315.45255      2758.2204    
    239700  -3636197.6     -3636215.5      17.876087      315.02374     -3065.5904    
    239800  -3636197.9     -3636214.7      16.839267      296.75226      2719.7987    
    239900  -3636198.3     -3636214.8      16.558271      291.80036     -951.79035    
    240000  -3636198.7     -3636215.6      16.878594      297.44529      799.83025    
    240100  -3636199.1     -3636216.3      17.179151      302.7419       222.22954    
    240200  -3636199.5     -3636216.1      16.58779       292.32056     -2179.4582    
    240300  -3636199.7     -3636216.8      17.138993      302.03421      1394.948     
    240400  -3636199.8     -3636216.4      16.574407      292.08472      300.12623    
    240500  -3636199.8     -3636216.2      16.354317      288.20615      327.5261     
    240600  -3636199.8     -3636216        16.130776      284.26677     -664.46585    
    240700  -3636199.7     -3636216.5      16.77906       295.69125     -315.41443    
    240800  -3636199.7     -3636216.7      17.083584      301.05776      785.26443    
    240900  -3636199.5     -3636215.9      16.366428      288.41958     -905.41619    
    241000  -3636199.4     -3636215.7      16.285129      286.98689     -85.248875    
    241100  -3636199.2     -3636216.5      17.314365      305.12473     -2586.2884    
    241200  -3636199       -3636216.4      17.359842      305.92616      2094.2603    
    241300  -3636198.9     -3636215.9      17.010171      299.76403     -1436.7078    
    241400  -3636198.7     -3636215.2      16.523615      291.18963      1787.112     
    241500  -3636198.5     -3636216.3      17.762493      313.02193     -1864.1883    
    241600  -3636198.3     -3636215        16.707635      294.43254      1776.4906    
    241700  -3636198.1     -3636214.9      16.744339      295.07938     -423.21729    
    241800  -3636198       -3636214.9      16.93267       298.39826      615.12759    
    241900  -3636197.9     -3636215.5      17.629275      310.67428      302.07652    
    242000  -3636197.9     -3636215.2      17.281824      304.55127     -495.81046    
    242100  -3636197.9     -3636215.8      17.933375      316.03332     -704.29404    
    242200  -3636197.8     -3636215.2      17.374777      306.18934      2761.3602    
    242300  -3636197.9     -3636214.5      16.632867      293.11493     -821.51274    
    242400  -3636197.9     -3636215.7      17.758599      312.9533      -1494.1266    
    242500  -3636198.1     -3636215.6      17.515076      308.66179      1778.9952    
    242600  -3636198.3     -3636215.9      17.534469      309.00354     -2354.8541    
    242700  -3636198.7     -3636216.4      17.665059      311.30488     -715.89661    
    242800  -3636199.2     -3636215.8      16.545752      291.57974      772.82113    
    242900  -3636199.6     -3636215.7      16.018646      282.29075     -3069.316     
    243000  -3636200       -3636217.1      17.10927       301.51041      3162.6875    
    243100  -3636200.2     -3636216.8      16.631013      293.08227     -1079.017     
    243200  -3636200.3     -3636216.2      15.854766      279.40275      1287.109     
    243300  -3636200.4     -3636216.7      16.248152      286.33525      1649.5534    
    243400  -3636200.4     -3636216.4      15.949609      281.07414     -2208.6192    
    243500  -3636200.4     -3636217.4      17.040307      300.29511      1649.0027    
    243600  -3636200.3     -3636216.7      16.370874      288.49793     -2548.562     
    243700  -3636200.2     -3636216.8      16.604262      292.61085      2365.282     
    243800  -3636200       -3636216        16.033268      282.54842     -2192.8574    
    243900  -3636199.7     -3636216.2      16.482083      290.45773      644.18307    
    244000  -3636199.4     -3636215.7      16.284737      286.97997      470.35366    
    244100  -3636199.2     -3636215.7      16.54035       291.48454     -2190.7484    
    244200  -3636198.9     -3636215.4      16.54763       291.61284      1268.0657    
    244300  -3636198.7     -3636216.1      17.495123      308.31017     -1818.9931    
    244400  -3636198.4     -3636215.2      16.74476       295.08678      1246.5477    
    244500  -3636198.3     -3636215.6      17.342266      305.61642     -754.47172    
    244600  -3636198.2     -3636215.2      17.02817       300.08122      996.1191     
    244700  -3636198.2     -3636214.9      16.72165       294.67954     -2012.0918    
    244800  -3636198.1     -3636215.9      17.787759      313.46717     -2471.6584    
    244900  -3636198.1     -3636215.1      16.95933       298.86809     -548.40159    
    245000  -3636198.2     -3636215.7      17.490378      308.22655     -163.66989    
    245100  -3636198.2     -3636216.3      18.105904      319.07374     -563.22385    
    245200  -3636198.3     -3636215.1      16.830426      296.59644     -641.319      
    245300  -3636198.3     -3636215.7      17.348849      305.73243      1864.9625    
    245400  -3636198.4     -3636216.2      17.755695      312.90213     -1270.5477    
    245500  -3636198.5     -3636215        16.455115      289.98249      1267.9043    
    245600  -3636198.6     -3636215.9      17.271549      304.37019     -1131.0598    
    245700  -3636198.7     -3636215.6      16.883923      297.53922      339.21643    
    245800  -3636198.8     -3636215.2      16.391484      288.86114      870.96666    
    245900  -3636198.9     -3636215.6      16.661576      293.62087      1324.8017    
    246000  -3636199.1     -3636216.1      16.975083      299.14569     -1109.2492    
    246100  -3636199.3     -3636216.6      17.295291      304.78861     -1664.555     
    246200  -3636199.8     -3636216        16.282657      286.94331      608.21724    
    246300  -3636200.1     -3636216.2      16.023851      282.38248      1475.561     
    246400  -3636200.6     -3636216.3      15.75767       277.69166     -616.57905    
    246500  -3636201       -3636217.1      16.137048      284.3773       667.09655    
    246600  -3636201.1     -3636215.9      14.761988      260.14513      1490.914     
    246700  -3636201.3     -3636217.4      16.173241      285.01511     -865.76255    
    246800  -3636201.2     -3636216.8      15.606334      275.02472      1471.4584    
    246900  -3636201.1     -3636216.7      15.598885      274.89345     -1218.2332    
    247000  -3636200.9     -3636217.1      16.188942      285.29181      1507.0544    
    247100  -3636200.6     -3636216.8      16.112377      283.94254     -121.37519    
    247200  -3636200.4     -3636216.3      15.89977       280.19584     -756.02288    
    247300  -3636200.1     -3636216.7      16.622217      292.92726      723.42336    
    247400  -3636199.9     -3636216.2      16.350667      288.14184     -1182.0316    
    247500  -3636199.6     -3636217        17.324847      305.30945     -1141.3406    
    247600  -3636199.4     -3636216.1      16.628202      293.03273     -1079.5312    
    247700  -3636199.3     -3636215.7      16.432808      289.58938     -803.99336    
    247800  -3636199.2     -3636216.9      17.724552      312.35331      197.26475    
    247900  -3636199       -3636215.1      16.037441      282.62197      527.33489    
    248000  -3636198.9     -3636216.3      17.410613      306.82087     -317.00521    
    248100  -3636198.8     -3636215.7      16.904835      297.90774     -518.86295    
    248200  -3636198.7     -3636215.1      16.430447      289.54777      2285.0569    
    248300  -3636198.6     -3636215.1      16.482966      290.47329     -1431.2379    
    248400  -3636198.5     -3636215.9      17.438694      307.31573      159.25081    
    248500  -3636198.3     -3636216.3      17.99547       317.1276      -2638.37      
    248600  -3636198.2     -3636214.9      16.686814      294.06563      2540.5488    
    248700  -3636198.1     -3636214.6      16.427128      289.48927     -907.05898    
    248800  -3636198       -3636214.9      16.887923      297.6097       533.88445    
    248900  -3636197.9     -3636215.8      17.877444      315.04766     -948.73957    
    249000  -3636197.9     -3636215.8      17.970322      316.68442     -1455.379     
    249100  -3636197.8     -3636214.8      17.012987      299.81366      316.2962     
    249200  -3636197.7     -3636215.6      17.981507      316.88153     -2411.5176    
    249300  -3636197.5     -3636215.4      17.887165      315.21897      1316.9549    
    249400  -3636197.4     -3636215.6      18.173537      320.26561      547.18237    
    249500  -3636197.3     -3636214.3      16.99106       299.42724     -2117.4555    
    249600  -3636197.2     -3636214.1      16.877295      297.4224      -579.92966    
    249700  -3636197.2     -3636214.8      17.599711      310.15328      248.07858    
    249800  -3636197.3     -3636214.9      17.599967      310.15779      75.351186    
    249900  -3636197.3     -3636215.2      17.876762      315.03565     -384.15078    
    250000  -3636197.5     -3636215.6      18.087075      318.74191      178.81293    
Loop time of 8513.52 on 72 procs for 50000 steps with 440 atoms

Performance: 1.015 ns/day, 23.649 hours/ns, 5.873 timesteps/s, 2.584 katom-step/s
94.4% CPU use with 72 MPI tasks x 1 OpenMP threads

MPI task timing breakdown:
Section |  min time  |  avg time  |  max time  |%varavg| %total
---------------------------------------------------------------
Pair    | 4605.9     | 6524.8     | 8068.9     | 844.9 | 76.64
Bond    | 0.021712   | 0.042153   | 0.071049   |   5.0 |  0.00
Neigh   | 0.06178    | 0.082222   | 0.10556    |   3.2 |  0.00
Comm    | 434.67     | 1973.3     | 3888.5     |1530.5 | 23.18
Output  | 0.064122   | 0.068019   | 0.28399    |   9.8 |  0.00
Modify  | 8.3786     | 14.211     | 73.366     | 325.4 |  0.17
Other   |            | 1.026      |            |       |  0.01

Nlocal:        6.11111 ave           9 max           3 min
Histogram: 3 7 0 12 0 20 21 0 5 4
Nghost:        401.569 ave         416 max         389 min
Histogram: 2 6 5 13 17 13 7 4 3 2
Neighs:              0 ave           0 max           0 min
Histogram: 72 0 0 0 0 0 0 0 0 0
FullNghs:      537.778 ave         829 max         258 min
Histogram: 3 7 2 10 17 8 16 3 3 3

Total # of neighbors = 38720
Ave neighs/atom = 88
Ave special neighs/atom = 0
Neighbor list builds = 1617
Dangerous builds = 0
unfix npt_equ


write_restart restart.equil
System init for write_restart ...
quit
