3/geom.data (written by ASE) 

400 	 atoms 
3  atom types
0.0      21.516739890018272  xlo xhi
0.0      21.519252990478357  ylo yhi
0.0       21.92725015988464  zlo zhi


Masses 

1            6.94000000    # Li_atom 
2           30.97376199    # P_atom 
3           32.06499999    # S_atom 

Atoms 

     1   0   2   0.0      2.7744419828256723      2.2178792865897616      10.947542248668102
     2   0   3   0.0      4.4146255328689117      3.2810838615770632       10.41525998999327
     3   0   3   0.0      2.3059359173440832     0.96605550353239844      9.3732446762661628
     4   0   3   0.0      3.4016814654082843      1.1941997888325659      12.670774179594442
     5   0   3   0.0      1.0109166009610113      3.2662378335292708      10.933066228361669
     6   0   2   0.0      2.6413286079146068      19.469320970055541      19.795842731134705
     7   0   3   0.0       1.194311340089188      17.977108490565275      19.571749204628397
     8   0   3   0.0      2.3255057731141195      20.505650782201553      18.107605156749138
     9   0   3   0.0      2.4046325825601254      20.363953611701618      21.576287742656756
    10   0   3   0.0       4.844750389826828      18.978142579309019      19.714138201926229
    11   0   2   0.0      13.240316129238133      10.935259223219404      10.766667023751475
    12   0   3   0.0      13.114459292288677      12.981598317274662      10.664680248982211
    13   0   3   0.0      14.958789537554184      10.031549511897015      9.7081444131644528
    14   0   3   0.0      14.490793876202238      10.523781253197789      12.328601535787319
    15   0   3   0.0      11.505195601231833      9.8765074168673888       10.94076137336903
    16   0   2   0.0      18.999032976012227      10.593545165982395      15.220617786446818
    17   0   3   0.0      17.851000631976682      11.230197862833625       13.58239880528928
    18   0   3   0.0      18.933455944488852        8.57926124272206      15.367963933739611
    19   0   3   0.0      20.839704568632964      11.448423813662799      15.476872491559037
    20   0   3   0.0      17.674259206817354      11.261434525428626      17.069623800484976
    21   0   2   0.0      13.423515298041083      19.353222377882005      2.1890348728263085
    22   0   3   0.0      11.800678366610434      19.978266876599566      1.2418749417050867
    23   0   3   0.0      14.886578735599473       19.11664010189466     0.74075606924111848
    24   0   3   0.0       13.99573670242474      20.757292442960022      3.4724425897690296
    25   0   3   0.0      13.029768105585712      17.418026229255492      2.8732364969769186
    26   0   2   0.0      2.7020647608910462      14.961002955229421      19.726559492257067
    27   0   3   0.0     0.75713238925067583      15.181895975780423      20.215425175208267
    28   0   3   0.0      3.1034430310148156      15.565173010784369      17.720604266186267
    29   0   3   0.0      3.6553186610887449      15.947054759090237      21.397729677580475
    30   0   3   0.0      3.4744843566601338      13.160542564024388      19.796881306768149
    31   0   2   0.0      2.6285138675141781      15.170921420637526      11.050337021021276
    32   0   3   0.0     0.76923822216759186      15.360851186454878      10.302619974069914
    33   0   3   0.0      4.0264720261549822      15.756344620613339      9.8031909669110107
    34   0   3   0.0      2.8046073668320779      15.944517290014605       12.89536403371992
    35   0   3   0.0      3.4184767146650628      13.298199837787779      11.469767941501761
    36   0   2   0.0      13.395194140294885      6.4103547911631278      6.4706372951207225
    37   0   3   0.0      13.385056194120839      8.1083517754453958      5.2923755977349867
    38   0   3   0.0      13.733553233831589      5.1354712953903583      4.9915480961808019
    39   0   3   0.0      15.269917083557624      6.5037583725156969      7.6640624626976832
    40   0   3   0.0      11.639237314853736      6.0631652940877343      7.3877199867531633
    41   0   2   0.0      8.1195768655820526      6.4741072764761203      15.333129571775098
    42   0   3   0.0      6.6432213247610541      6.8881299673198431       16.71510557172839
    43   0   3   0.0      7.3222664434513183      6.1240362050531809      13.424787267173512
    44   0   3   0.0      9.4041741925960078      8.1064988560526601      15.348117962094687
    45   0   3   0.0      9.1897631655425904      4.8222868407378581      15.900803660635992
    46   0   2   0.0      7.9923321763305628      19.393576216483069      2.2491526637161123
    47   0   3   0.0        7.62046233347428      19.091544291233124     0.22359602456483599
    48   0   3   0.0      8.4655571748999616      17.525521915940452      3.0118666354020074
    49   0   3   0.0      9.6276517879095493      20.639308600998927      2.5246541771868007
    50   0   3   0.0      6.4177481099680964      20.238962127347779      3.2994019348971872
    51   0   2   0.0      13.348326460296393      19.604429487721386      19.895952608177801
    52   0   3   0.0      11.466525765414557      19.980740098889555      19.162004533961973
    53   0   3   0.0      14.736207710633831      18.263086188981809      18.355181369217217
    54   0   3   0.0      14.475474927294835      21.108570743012422      20.409932017273729
    55   0   3   0.0      13.088953970865278      18.098879548757751      21.353798357822392
    56   0   2   0.0       18.79129522385422      6.4829725960872393      2.0886377941449652
    57   0   3   0.0      19.685579018150346      6.5172481584574262     0.33849255841506554
    58   0   3   0.0      17.140932810299272      5.3119161948984095      2.2748149664332478
    59   0   3   0.0      20.343734220837796      5.5955809173738924      3.2581524998735696
    60   0   3   0.0      18.300995676884991      8.3829670132412346      2.7475101607499961
    61   0   2   0.0       2.678715410441372        2.04398989513686      6.5169232423197521
    62   0   3   0.0      3.8551452530190464      3.0453247618797041      5.1575800926275708
    63   0   3   0.0      2.6829119026514516 -0.00078629999910007694      6.4159774076749718
    64   0   3   0.0       3.845028028950026      2.4828624483115576      8.1583351752983511
    65   0   3   0.0     0.74686839077338307      2.6860458728784149      6.6274742541168505
    66   0   2   0.0      2.6967238596233192      15.067171620692877      6.5135023132950227
    67   0   3   0.0      2.1366633600585696      17.031683372968626      6.3059049269866332
    68   0   3   0.0      2.8427252781579782      14.090514383727154      4.7281724306166755
    69   0   3   0.0      4.5846173473968959      14.925249135134116       7.268445873751272
    70   0   3   0.0      1.2056157520833435      14.025210108351917      7.4956738735336144
    71   0   2   0.0      13.365617740791281      6.2260278585071438      19.736652104421463
    72   0   3   0.0      14.980671398317224      8.0116978442948437      19.578475187318602
    73   0   3   0.0      13.062436905012719      5.7013064573323531      17.758329378713153
    74   0   3   0.0      14.141731666981885      4.8955593761108176      20.965795128896101
    75   0   3   0.0      11.535564409238267      7.0093252153375243      20.502677173219073
    76   0   2   0.0      18.846984379985553      14.930921011830433      19.987135706217977
    77   0   3   0.0      20.513047305763905      16.036062161781004      19.278364802654227
    78   0   3   0.0      17.352408494818249      14.943349301432804      18.484863081591268
    79   0   3   0.0      19.221421411149137       12.94903595574684       20.32616708836651
    80   0   3   0.0      17.563978289039564      15.930238048343949      21.159778831151488
    81   0   2   0.0      18.845079526966906      14.813591349921467      2.2812100132710778
    82   0   3   0.0      16.941523829022199      15.782958274087934      1.9942621866426382
    83   0   3   0.0      20.000900228932803       15.06663947627931     0.57082314905142839
    84   0   3   0.0      19.902054220927432      15.784427445422281      3.7512686759746616
    85   0   3   0.0      18.410645524190858      13.000645763858961      2.8114474079897249
    86   0   2   0.0      18.926760860618284      19.323439561179534      6.7358038076962687
    87   0   3   0.0      20.297702274334895      18.152214447518649      5.7312277226371977
    88   0   3   0.0      17.116619709488354       19.09901510157734      5.8218958423695302
    89   0   3   0.0      18.764348051802141      18.644971302669212      8.5799814146152062
    90   0   3   0.0       19.35027814865337      21.407381950926315       6.753622470122604
    91   0   2   0.0      2.7116484000918755      2.1271394239532313      2.1724665443821096
    92   0   3   0.0      2.3987023517964956      4.1836442318659453      1.5579038469289463
    93   0   3   0.0      1.7080138926386121     0.74041039238150441      1.0511122479344739
    94   0   3   0.0       4.695469731489303      1.7115891501734883      2.3219954997471981
    95   0   3   0.0      1.5786459963923394       2.068689586799946      3.8612653602708691
    96   0   2   0.0      2.6584485069728583      2.2413066681249925        15.3301987145468
    97   0   3   0.0      1.5998308378553192      2.3239978718651502       13.59645786206333
    98   0   3   0.0      1.1833361655396539       3.006727851999687      16.486299600188833
    99   0   3   0.0      2.7174764102918969     0.29959925554915434      15.962027001257573
   100   0   3   0.0      4.7917915751774611      2.8294625326786256      15.381893183155126
   101   0   2   0.0      13.303213044543877      15.145990878770707      19.768562768665564
   102   0   3   0.0      12.983835467021102      17.012945077940561      19.347548462784417
   103   0   3   0.0      12.207659837277157      14.274515525795856      18.288346961016636
   104   0   3   0.0      15.314422440604647      14.679319923317511      19.405763235137861
   105   0   3   0.0      12.830864501052423      14.680763370824897      21.684494038890787
   106   0   2   0.0        18.8164673023144      19.563263707251927      2.1252963827557316
   107   0   3   0.0      16.857170377424726      19.215583698157619      1.6495638504928272
   108   0   3   0.0      20.191429259007478      18.961536933273173     0.80052452716627842
   109   0   3   0.0      19.206689282760717      21.483928127461983      2.4703321370726496
   110   0   3   0.0      19.059766368556115        18.4189907311975      3.7681956359420106
   111   0   2   0.0       2.636295663585305      6.5995425416929763      15.493390587906687
   112   0   3   0.0      1.5411934490748918      8.3159498657579292      15.054218465814637
   113   0   3   0.0      3.9860698403706363       5.770395356511294       13.96848250960953
   114   0   3   0.0      3.8127048616946517      6.9312395243783786      17.079550170877216
   115   0   3   0.0      1.1341727642001478      5.2528511482751501      15.776848326258495
   116   0   2   0.0      2.7059613767659476      19.232974760557042      11.083045505494324
   117   0   3   0.0      2.0551736920388968      20.544164995188389      9.5843847399999245
   118   0   3   0.0      4.1493666914516156      18.381740378242792      9.9881331965622397
   119   0   3   0.0      3.6659643904676633      20.061852652706243      12.634616375216559
   120   0   3   0.0     0.91800255083724869      18.362358101262974      11.336771678032616
   121   0   2   0.0      8.1541472567939373      14.927198965481058      15.331949331884578
   122   0   3   0.0      9.1852723621260814      15.237336783078492      13.504352083738549
   123   0   3   0.0      6.7704090182721828      13.363855185827896      15.092103543646356
   124   0   3   0.0      9.4632421021243243      14.646698969097875      16.890870300825156
   125   0   3   0.0        6.54163054444028      16.482424440974313      16.027484820517738
   126   0   2   0.0      8.0951009984669664      10.734136292047246      10.935513702371383
   127   0   3   0.0      6.7670213864488975      11.898049416859617      9.9392822040758571
   128   0   3   0.0      8.8197366116880893      9.2858706722452755      9.6404324237647341
   129   0   3   0.0      9.5198906881712588      12.034575302407756      11.793473240299823
   130   0   3   0.0       7.113605850099761      9.7240862964952566      12.481640651846254
   131   0   2   0.0      8.1285862292801276      2.1490849474182632      19.773632459233358
   132   0   3   0.0      8.9098004672615438      3.9285541894363449      18.955744164549465
   133   0   3   0.0      9.0091512941690901      0.6338148256197963      18.764430993512381
   134   0   3   0.0      8.4686726699953034       2.056396834497431      21.774937190022222
   135   0   3   0.0      6.1283345315501387      2.1580623254677542      19.379089075739838
   136   0   2   0.0       2.597985861447123      2.1950347244541479        19.8897824220922
   137   0   3   0.0     0.66918458348341847      2.0655684943697019      19.297480600761816
   138   0   3   0.0      3.7398646130907571      3.5041331108005855      18.782212651744683
   139   0   3   0.0      2.8566839685223013      2.9927386474429483      21.648165377171804
   140   0   3   0.0      3.7615402128528506     0.47270185292519284      19.694750464060707
   141   0   2   0.0      2.5120208602896561      19.265086694566239      15.416616793544817
   142   0   3   0.0      2.5762808819193483      18.004978106210956       13.86688262155673
   143   0   3   0.0     0.62306408376036959      19.979946943755895      15.620331675865724
   144   0   3   0.0      3.4031604627543293      18.143424020090173      16.861937921304193
   145   0   3   0.0      4.1947371680422165      20.941751479432746      15.003685159294008
   146   0   2   0.0      18.847102938081715      6.4792289931253082      19.616480323968041
   147   0   3   0.0       19.64156618530194      6.1725138259392356      17.810543372796076
   148   0   3   0.0      19.332623159024394      4.7609042143031441      20.769899284128307
   149   0   3   0.0      19.591177932343548      8.3551667085733818      20.413803923059206
   150   0   3   0.0      16.805435150614176      6.6233584867567847      19.562271675838542
   151   0   2   0.0      13.328131769028392       19.32026848241933      6.6719989128038026
   152   0   3   0.0      12.849662820757899      21.121610759988087      5.9170668586501174
   153   0   3   0.0      13.952085634038015      18.127105049664632      5.1188018927034564
   154   0   3   0.0      15.025102410506117      19.249533792454681      7.9203495792840624
   155   0   3   0.0        11.5152072839629       18.55669834143098      7.2191912052241358
   156   0   2   0.0      13.494424054053622      2.2273430063835988      1.9626206250303102
   157   0   3   0.0      12.622114386740217      4.0578750252831073      1.8904327287800344
   158   0   3   0.0       12.56660482926965      0.8840193115341094     0.82480578356526713
   159   0   3   0.0      15.514472251894951       2.177269749335947      1.9076426733425584
   160   0   3   0.0      12.741805777805448      1.4179961208473877      3.9112579251413853
   161   0   2   0.0      13.393333321887679      10.715965724335081      19.900597887179813
   162   0   3   0.0        11.5359812663021      11.453443060571326      19.354462485449641
   163   0   3   0.0      15.092746305298236      11.280396345547016      18.670455297339323
   164   0   3   0.0      14.106362716613075      11.316542178285157      21.733639196967626
   165   0   3   0.0      13.056670289427352      8.7816522301621127      19.943091140022048
   166   0   2   0.0      2.7715819131033612      11.241191914537744      11.006479054467476
   167   0   3   0.0      3.3901711984218066      11.479189817031772      8.8650757217661429
   168   0   3   0.0      2.1027934580137484      9.4232833439399108      10.119027688235848
   169   0   3   0.0      4.1842706304225823      11.060290013325899       12.59094614342315
   170   0   3   0.0     0.72090290646888622      11.581353193723999      11.649594236902162
   171   0   2   0.0       18.85983779103498      6.4811883415022278       6.778056123404375
   172   0   3   0.0      20.358491349437816      6.0644771222795582      5.4955690787096838
   173   0   3   0.0      17.427908059023572      5.1233371010209243      6.2554844359050179
   174   0   3   0.0      19.373596364234871      6.2510678247783265      8.7241395968847915
   175   0   3   0.0      18.144883450745091      8.3925328829856252      6.3228704800161788
   176   0   2   0.0      13.384646537366505      10.938131724415429        6.40093781968943
   177   0   3   0.0      12.082213677192446      12.490833908146604      6.3404356419780177
   178   0   3   0.0      14.798656962977594      10.718603407614703      4.9446675995340792
   179   0   3   0.0      14.675653628112849      11.264912094955474      8.0830632865058245
   180   0   3   0.0       11.95225784328807      9.2915939236023739      6.7494729045878206
   181   0   2   0.0      13.463009671022155      19.424313528485634      11.004799281495448
   182   0   3   0.0      12.856521985311224      20.657121415022505      9.5142123902517266
   183   0   3   0.0      12.540687002690563      17.385446943371864      10.997181916722351
   184   0   3   0.0      15.491514637381144      19.197860676359785      11.069920131750649
   185   0   3   0.0      12.565594867668723      20.269849610300039      12.627646578108763
   186   0   2   0.0      2.6579912234905039      6.0654509181709839       10.95105427724922
   187   0   3   0.0      1.7329699561864498      6.0369188073397186      9.2345182580360117
   188   0   3   0.0      1.0512801171984782      5.7020088043301369      12.219578932360372
   189   0   3   0.0      4.7560543124467429      5.7919638827728948      11.319389619989071
   190   0   3   0.0      3.0918638693587641      8.1881727050566884      11.317781189816722
   191   0   2   0.0      13.442830087562875      6.3468785041840245       11.14641253259326
   192   0   3   0.0      14.652787447505464      7.8272439492865384      10.500574044363876
   193   0   3   0.0      11.584846974533379      6.4037517863161231      10.238924193945071
   194   0   3   0.0      14.470397324854847      4.5176413489293061      10.933321709635441
   195   0   3   0.0      13.084573503131358      6.5951208648029267      13.130585557826258
   196   0   2   0.0      18.866146141489402      19.587339976993377      19.697500548036246
   197   0   3   0.0       18.34145069120526      21.373723310696843      18.980597273063239
   198   0   3   0.0      18.783270677976851       18.21876224246143      18.073688453393427
   199   0   3   0.0      20.717949142938853      19.620773545019198       20.45723692362429
   200   0   3   0.0      17.388735850073484      18.895511507170095      20.967871759993209
   201   0   2   0.0      18.921692401180326      2.2488484608250485      15.362335088668379
   202   0   3   0.0       20.28817700522335      2.5452732717879196      13.875514658604923
   203   0   3   0.0      17.874042199887167     0.58629619230930752      14.683766442061241
   204   0   3   0.0      19.610945135657005      2.1071932643804416      17.235704186775592
   205   0   3   0.0      17.437503535375619      3.7401689165233138      15.297381815896586
   206   0   2   0.0       13.36433568897367       10.73517880878123      15.282016725708933
   207   0   3   0.0      13.038445072501037      12.918093816356379      15.010083444097528
   208   0   3   0.0      14.829836996392821      9.8886348942886109      14.255254941811977
   209   0   3   0.0       14.48043753038883      10.129241647368234      16.920027077470284
   210   0   3   0.0      11.565673807005842      9.6859241987553588      15.307378169572591
   211   0   2   0.0      13.505574878123825      19.422006063564897      15.202881831202646
   212   0   3   0.0      12.130885410686517      20.838653882141809      15.541560309659831
   213   0   3   0.0      14.499436269015906      19.346892927619326      13.505262767241165
   214   0   3   0.0      15.141678962175575      19.703997535562124      16.476020609773798
   215   0   3   0.0      12.466418755044721      17.430173070747273      15.537191920221254
   216   0   2   0.0      18.897178917150697      15.259444881498231      14.879955537439836
   217   0   3   0.0      18.646690846733033      17.258215228687071      14.757458405923018
   218   0   3   0.0      17.411310817380755      14.084921129119122      13.995208613018168
   219   0   3   0.0      20.955661042050028      14.595219210612388      15.156550392525791
   220   0   3   0.0      18.499496176041585      14.780768622925981      16.884391592879322
   221   0   2   0.0       8.087615189355299      15.066334123613906      6.5471314136438945
   222   0   3   0.0      7.0674506192815674      15.483780346187029      4.8406864551837634
   223   0   3   0.0      8.2204684676063007      12.985480516004309      6.8655844919124238
   224   0   3   0.0       9.959802574861996       15.89563574672804      6.5587972111611386
   225   0   3   0.0      7.1825554455946969      15.847745856407183      8.2720902312639861
   226   0   2   0.0      13.374678617026523       2.104534970880835      6.7447524678893833
   227   0   3   0.0      14.205291092359197       2.504487664013066      4.7192998168975064
   228   0   3   0.0      11.342041173547086      1.9303138337352852      6.6379559740888796
   229   0   3   0.0      14.613228517934125     0.60877460054780363      7.4715969156828743
   230   0   3   0.0      14.014901305067788      3.5062012156351257      7.8949648363593949
   231   0   2   0.0       2.609608174959587      10.624810514958526      19.745082453343588
   232   0   3   0.0      2.4251781613673615      8.9937446744796627      18.602851355343144
   233   0   3   0.0      1.0817776461294892      12.003729966542107       19.09368670189566
   234   0   3   0.0      2.6712866134096611      10.348482436613537      21.760440084137677
   235   0   3   0.0      4.6880738027866649      11.323355613032605      19.283076745368465
   236   0   2   0.0      13.381633373205284      2.2001771916806847      15.361207340900354
   237   0   3   0.0      14.595852391295407       3.795648511404178      14.828658913659675
   238   0   3   0.0      13.959399905293099     0.77358917004030237      14.023325440580255
   239   0   3   0.0      13.785790351207348      1.6694936221770202      17.349335549600578
   240   0   3   0.0      11.422626775994933      2.7826262252976854       15.10223006777381
   241   0   2   0.0      8.0772756062162419      19.548580882421383      15.324474695208762
   242   0   3   0.0      6.4609595360088266      20.442770624713095        14.5217201830813
   243   0   3   0.0      9.7190028427254056      19.969431371947984      14.217411706975012
   244   0   3   0.0      8.1946273817072939      19.799047801425452      17.396315820419403
   245   0   3   0.0       8.064523664610542      17.518807276350127      14.853236832494961
   246   0   2   0.0      2.7427611530052918      6.5523412550663602      6.4203294003619176
   247   0   3   0.0      3.9744869045863229      6.4070052599793943      4.8480815288132684
   248   0   3   0.0      1.1590519951981331      5.3270521352484304      6.1948733879265188
   249   0   3   0.0      4.1452799618714637      6.0088838789076329       8.018848222944797
   250   0   3   0.0      1.8895043906180984      8.4565313593630034      6.5707143774691756
   251   0   1   0.0      2.1792652224805202      4.6790209078754872      3.9788367431241469
   252   0   1   0.0      6.2312939670266774      14.218566380282425      18.899519044268555
   253   0   1   0.0      16.366707117808819      6.3279191878929355      14.264210480823685
   254   0   1   0.0      13.964534882067374      15.405460542092589      7.8537945504099911
   255   0   1   0.0       16.67465841267633      17.069075236917449      19.048643792965674
   256   0   1   0.0      2.4979842311178593      7.2889910038403078      13.216361461897929
   257   0   1   0.0      5.0558603681395571      13.535179528182882      9.3672931665707395
   258   0   1   0.0      9.1466446258663066      2.3961123777021247      10.783344176255026
   259   0   1   0.0      15.835464631730416      7.3507344293104291      4.4145406097588182
   260   0   1   0.0      8.0161276503840941      18.785966332108245       6.273074867994711
   261   0   1   0.0      8.4330738000525738      4.7734236991847254      4.1666032808397544
   262   0   1   0.0      8.0090933567065221      9.6064470281855705      19.109373363928956
   263   0   1   0.0       15.56464595909625      12.939456738124131      16.488918244041752
   264   0   1   0.0      3.2637835377278912      4.4497652091855029        16.7890163787362
   265   0   1   0.0      5.6446117248526244      17.536953384894346       12.50700470347636
   266   0   1   0.0      11.808732477844039      11.458481144490968      13.061511667053274
   267   0   1   0.0      16.866374194476489      4.8524787991942979      9.1594425240128015
   268   0   1   0.0        11.4874760968142      3.3457499015571228      17.861557578416551
   269   0   1   0.0      19.155815487436016      13.166528914549472      8.1522933570112475
   270   0   1   0.0       1.696426760294907      13.141112754793543      14.170503730365123
   271   0   1   0.0      15.974177006268226      19.413785300694983      3.7694382104688042
   272   0   1   0.0      8.9349928678012596      10.167061067866324     0.43324979435574928
   273   0   1   0.0      7.1013031057240736      7.1922800010198564      10.982961642635416
   274   0   1   0.0      16.677341179714681      9.0675755905633935      18.040113377002132
   275   0   1   0.0      10.263717154462846      17.245705321425149      17.785450394987951
   276   0   1   0.0      1.3149180005890433       18.17011989719445     0.19674631144699437
   277   0   1   0.0      9.7578981379509901      10.659059614555598      7.0505213835231935
   278   0   1   0.0       16.60252972324356      3.2169020295814876      18.669562628641454
   279   0   1   0.0      5.7791352156069582      6.9819242054494648      21.154388083806367
   280   0   1   0.0      18.896726941503253      12.928459931229375       15.62369943716843
   281   0   1   0.0      5.8925647252196613      9.1738691482533881      6.9284840708089943
   282   0   1   0.0      1.6498460736568734      13.046795837886583      9.5823863288461446
   283   0   1   0.0      14.757527800175412      15.930031972157144      13.203976515075782
   284   0   1   0.0      5.3143311402927038      20.354090529393101      17.475933968342488
   285   0   1   0.0      5.0716357461601449      3.5226917611567186      12.936575013035519
   286   0   1   0.0      17.025619070305886      2.2493789292912347      11.878488441954213
   287   0   1   0.0       13.96661996146682       8.455045664177856      8.0855383341249816
   288   0   1   0.0      5.3243684223361107      10.278304955157576      16.046392132756836
   289   0   1   0.0      16.425889819969868      14.690802675069122      6.7950803649860676
   290   0   1   0.0      7.5855043309282131      4.0987631440729784      6.6728281817875352
   291   0   1   0.0      11.133355037749324      17.928479301714749      13.145209502470875
   292   0   1   0.0      1.8386151739819467      17.191066880039745      8.8644678695814303
   293   0   1   0.0      20.171618958739167      1.4809392982213092     0.66881504370156408
   294   0   1   0.0      7.0630086854216625      3.2481077796539317      16.935628317992947
   295   0   1   0.0      10.546160615745642      13.895865276490465      2.6411989414895416
   296   0   1   0.0      8.1963805422448051      20.074527735626077      9.8015803142472731
   297   0   1   0.0      9.0257648738417267       16.68472502511489      20.935143638438873
   298   0   1   0.0      9.5961077949710667      14.434100871256714      9.4483725688764402
   299   0   1   0.0      10.052745002093289      18.328208960382437      1.0017086183546873
   300   0   1   0.0      2.2595543850824154      4.1955363979444904      7.9817242242091355
   301   0   1   0.0      21.300676975077959      13.919914648842052      18.047479646938154
   302   0   1   0.0      18.040496474822067      1.2194181924091587      5.0461059557206802
   303   0   1   0.0      9.6539022669792605      8.3746276819415453      12.426656573666286
   304   0   1   0.0      4.4054127105295553      17.212525959426838      3.5205717035654671
   305   0   1   0.0      14.887925403302166      15.833479898886932      16.480580260664698
   306   0   1   0.0      9.7041535666638623      12.197770468641089      14.823337214085173
   307   0   1   0.0      11.581722558751601      8.2308978883566919      17.749929401465732
   308   0   1   0.0      5.2403235527441314      19.003096377116666      6.4158205480356072
   309   0   1   0.0      1.3526583995034467      5.9673604077622153      19.137641355157538
   310   0   1   0.0      13.648816442397314      12.955308565885405      20.015878084918381
   311   0   1   0.0      8.1786946617194829      13.726944849223013      21.364958535465778
   312   0   1   0.0     0.69067619607450603      16.960034059291257      16.510751373486169
   313   0   1   0.0      16.618489763751118       19.62867905598377      18.655381813218554
   314   0   1   0.0      5.0315861702050562      11.821395983185324      6.2056435881445564
   315   0   1   0.0      5.9901048528016085      14.784807731695295      12.088652469211238
   316   0   1   0.0       18.24980929433999      9.2780668288041817      10.633635799185114
   317   0   1   0.0      3.4312908284230734       17.19149653315856      19.430062442233737
   318   0   1   0.0      12.795100577854546      3.8903493292198399      12.908854679867519
   319   0   1   0.0     0.54278982224429972      20.929499813889969      13.157173795563768