LAMMPS (15 Sep 2022)
  using 1 OpenMP thread(s) per MPI task
# /home/carsten/Documents/PhD/LPS/MD_GAP/polarise/MD_GAP_CS.in (written by LAMMPScs 2.1 on Mon Jun 17 10:42:15 2019)

# ------------------------------ INITIALIZATION -------------------------------
units      metal
dimension  3
boundary   p p p
atom_style full
newton     on off
# ----------------------------- ATOM DEFINITION -------------------------------
read_data geom.data
Reading data file ...
  orthogonal box = (0 0 0) to (21.51674 21.519253 21.92725)
  3 by 4 by 6 MPI processor grid
  reading atoms ...
  400 atoms
Finding 1-2 1-3 1-4 neighbors ...
  special bond factors lj:    0        0        0       
  special bond factors coul:  0        0        0       
     0 = max # of 1-2 neighbors
     0 = max # of 1-3 neighbors
     0 = max # of 1-4 neighbors
     1 = max # of special neighbors
  special bonds CPU = 0.002 seconds
  read_data CPU = 0.034 seconds
timer timeout 24:00:00 every 100
New timer settings: style=normal  mode=nosync  timeout=00:00:00
# ------------------------------ ATOM GROUPING --------------------------------
group Li_atoms type 1
150 atoms in group Li_atoms
group P_atoms type 2
50 atoms in group P_atoms
group S_atoms type 3
200 atoms in group S_atoms

neighbor 2.0 bin
comm_modify vel yes

# ------------------------- GAP Potential ---------------------------


pair_style quip
pair_coeff      * * /u/thuss/templates/gaps/naps/gp_2b_soap.xml "IP GAP label=GAP_2023_2_8_0_13_56_52_159" 11 15 16

reset_timestep 0
# ------------------------ DEFINE COMPUTES --------------------------

compute thermo_press_lmp all pressure thermo_temp
compute ke_tech all ke
compute epot_tech all pe
compute vacf_p P_atoms vacf
compute vacf_s S_atoms vacf
compute msd_li Li_atoms msd com yes
variable etotal_tech equal c_ke_tech+c_epot_tech
variable temp_phys equal c_thermo_temp
variable ke_phys equal ke
variable etot_phys equal etotal
variable vol_v equal vol
variable T equal "500"

# ---------------------------------- TIMESTEP ------------------------------------
timestep 0.002

# ------------------------ RUNS ---------------------------
dump equiatoms all atom 500 geom.dump
dump_modify equiatoms scale no

thermo 100 # every 0.1
thermo_style custom step etotal pe ke temp press

fix therm_equ all nvt temp 300 600 1.0
run 50000
Neighbor list info ...
  update: every = 1 steps, delay = 0 steps, check = yes
  max neighbors/atom: 2000, page size: 100000
  master list distance cutoff = 8
  ghost atom cutoff = 8
  binsize = 4, bins = 6 6 6
  1 neighbor lists, perpetual/occasional/extra = 1 0 0
  (1) pair quip, perpetual
      attributes: full, newton on
      pair build: full/bin
      stencil: full/bin/3d
      bin: standard
Per MPI rank memory allocation (min/avg/max) = 8.036 | 8.036 | 8.036 Mbytes
   Step         TotEng         PotEng         KinEng          Temp          Press     
         0  -3305351.5     -3305351.5      0              0              78458.203    
       100  -3305367.3     -3305487.3      119.94104      2325.5747      28108.422    
       200  -3305392.9     -3305506.3      113.45616      2199.8372      20212.397    
       300  -3305418.6     -3305516        97.455598      1889.5973      12623.941    
       400  -3305442.7     -3305532.2      89.506898      1735.4774      8652.2046    
       500  -3305464.2     -3305537.8      73.663705      1428.2888      9943.071     
       600  -3305482.3     -3305548.7      66.43196       1288.0702      9065.5301    
       700  -3305497.9     -3305557.8      59.898668      1161.3941      4102.742     
       800  -3305511.9     -3305569.2      57.313979      1111.2788      5783.9599    
       900  -3305523.9     -3305573.2      49.345318      956.77191     -256.37351    
      1000  -3305534.6     -3305580.3      45.696164      886.01732      2534.7712    
      1100  -3305544.3     -3305585.8      41.460048      803.88192      2403.9283    
      1200  -3305552.5     -3305590.1      37.527312      727.62887      3254.4963    
      1300  -3305559.9     -3305596.3      36.40341       705.83719     -2256.0385    
      1400  -3305566.6     -3305600        33.426501      648.11695     -3260.0009    
      1500  -3305572.3     -3305600.3      28.026053      543.40596     -4522.3038    
      1600  -3305577.2     -3305605.8      28.581268      554.17121     -5079.1083    
      1700  -3305581.6     -3305608.6      26.995576      523.42572     -5056.4011    
      1800  -3305585.6     -3305610        24.415655      473.40282     -2598.3103    
      1900  -3305589.2     -3305613        23.785108      461.17695     -2261.2506    
      2000  -3305592.4     -3305613.8      21.404639      415.02129     -5072.4741    
      2100  -3305595.1     -3305615.6      20.533206      398.12479     -3661.677     
      2200  -3305597.7     -3305617.5      19.831365      384.51657     -7160.9706    
      2300  -3305600       -3305618.6      18.566825      359.99801     -4691.4816    
      2400  -3305602       -3305619        16.995158      329.52448     -5506.9212    
      2500  -3305603.8     -3305621        17.179698      333.10257     -6542.9742    
      2600  -3305605.3     -3305622.1      16.831525      326.35175     -4281.4549    
      2700  -3305606.7     -3305622.9      16.260674      315.28333     -6506.2852    
      2800  -3305607.8     -3305623.8      15.986109      309.9597      -6444.4629    
      2900  -3305608.8     -3305623.4      14.63102       283.68546     -7376.0178    
      3000  -3305609.6     -3305624.3      14.76147       286.21479     -8010.4941    
      3100  -3305610.2     -3305624.6      14.437118      279.92583     -7647.6545    
      3200  -3305610.7     -3305624.3      13.694563      265.5282      -6402.0466    
      3300  -3305610.9     -3305625        14.069053      272.78929     -6492.2859    
      3400  -3305611.1     -3305625        13.963178      270.73645     -7084.0964    
      3500  -3305611       -3305625.2      14.180369      274.94764     -6389.322     
      3600  -3305610.8     -3305625.2      14.347975      278.1974      -6956.2504    
      3700  -3305610.5     -3305624.7      14.277299      276.82705     -7627.7473    
      3800  -3305609.9     -3305623.9      13.99268       271.30847     -5833.1432    
      3900  -3305609.3     -3305623.4      14.111177      273.60605     -4790.53      
      4000  -3305608.4     -3305624        15.584633      302.17536     -6603.0659    
      4100  -3305607.5     -3305623.8      16.314484      316.32668     -6511.2527    
      4200  -3305606.6     -3305622.5      15.861991      307.55313     -4093.0384    
      4300  -3305605.7     -3305623.2      17.516503      339.63299     -6621.4853    
      4400  -3305604.8     -3305621.9      17.158693      332.69531     -4453.8554    
      4500  -3305603.9     -3305621.7      17.769711      344.54252     -2987.3983    
      4600  -3305603.1     -3305622.2      19.040502      369.1823      -1535.262     
      4700  -3305602.5     -3305621.8      19.240199      373.05428     -6469.8895    
      4800  -3305602.1     -3305620.4      18.292131      354.67189     -4511.8768    
      4900  -3305601.9     -3305620.5      18.603511      360.70934     -2617.3567    
      5000  -3305602       -3305621.6      19.66741       381.3376      -4464.3461    
      5100  -3305602.3     -3305621.9      19.675133      381.48735     -5746.8913    
      5200  -3305602.8     -3305622.4      19.595925      379.95157     -4623.5101    
      5300  -3305603.4     -3305622.4      18.942121      367.27475     -4494.1576    
      5400  -3305604.2     -3305622.5      18.229589      353.45925     -5828.2338    
      5500  -3305605.1     -3305621.5      16.436223      318.6871      -3487.2125    
      5600  -3305606       -3305624.4      18.405993      356.8796      -4622.1073    
      5700  -3305606.9     -3305624.2      17.238616      334.24495     -7440.2282    
      5800  -3305607.8     -3305625.7      17.850895      346.11663     -5547.7812    
      5900  -3305608.6     -3305624.8      16.145133      313.04307     -7178.7524    
      6000  -3305609.3     -3305625.2      15.82474       306.83086     -6902.9577    
      6100  -3305609.9     -3305625.8      15.893353      308.16122     -4377.6537    
      6200  -3305610.4     -3305626.7      16.274253      315.54662     -8385.1099    
      6300  -3305610.8     -3305626.3      15.485835      300.25973     -4337.9502    
      6400  -3305611.1     -3305627.6      16.540071      320.70065     -4352.8816    
      6500  -3305611.2     -3305627.7      16.4994        319.91207     -6321.5283    
      6600  -3305611.2     -3305627        15.851086      307.3417      -7031.5462    
      6700  -3305611.1     -3305627.9      16.834254      326.40465     -5023.6464    
      6800  -3305610.8     -3305626.6      15.799662      306.34463     -4429.2087    
      6900  -3305610.5     -3305627.2      16.713019      324.05399     -3431.7955    
      7000  -3305610       -3305627.4      17.38484       337.08014     -6656.466     
      7100  -3305609.4     -3305626        16.596619      321.79708     -7014.6141    
      7200  -3305608.8     -3305626.1      17.344075      336.28974     -5335.3543    
      7300  -3305608.1     -3305625.7      17.684505      342.89043     -6491.9898    
      7400  -3305607.3     -3305624.2      16.869495      327.08796     -7232.6473    
      7500  -3305606.6     -3305623.9      17.323198      335.88495     -5811.2543    
      7600  -3305605.9     -3305624        18.087578      350.70575     -5646.3082    
      7700  -3305605.2     -3305623.2      18.000006      349.00778     -3332.5059    
      7800  -3305604.6     -3305623.3      18.696768      362.51753     -5551.7478    
      7900  -3305604.1     -3305623.5      19.428435      376.70405     -4393.3117    
      8000  -3305603.7     -3305623        19.334897      374.8904      -5652.6963    
      8100  -3305603.4     -3305622.5      19.142213      371.15439     -6089.8815    
      8200  -3305603.2     -3305623.7      20.42596       396.04538     -7465.1837    
      8300  -3305603.2     -3305622.1      18.840851      365.3112      -5541.1934    
      8400  -3305603.4     -3305623.5      20.148526      390.66612     -6849.1687    
      8500  -3305603.6     -3305623.2      19.525255      378.58132     -3518.7218    
      8600  -3305604       -3305622.8      18.760039      363.74431     -6352.9161    
      8700  -3305604.5     -3305624.6      20.051582      388.78643     -6095.996     
      8800  -3305605.1     -3305623.3      18.191804      352.72661     -6153.7294    
      8900  -3305605.7     -3305624.4      18.776939      364.07199     -3302.8885    
      9000  -3305606.3     -3305624.3      18.020919      349.41328     -5587.4653    
      9100  -3305606.9     -3305624.5      17.584987      340.96086     -4984.7046    
      9200  -3305607.4     -3305625.2      17.796133      345.05483     -7512.1364    
      9300  -3305607.9     -3305625.5      17.634334      341.91765     -5204.8522    
      9400  -3305608.3     -3305624.2      15.944333      309.1497      -4957.2238    
      9500  -3305608.6     -3305625.2      16.645961      322.75378     -6825.0376    
      9600  -3305608.7     -3305625.5      16.788078      325.50933     -3123.2315    
      9700  -3305608.8     -3305625.6      16.79427       325.62939     -4013.434     
      9800  -3305608.8     -3305625.5      16.777983      325.3136      -6254.0127    
      9900  -3305608.6     -3305625.8      17.209177      333.67415     -5072.2634    
     10000  -3305608.3     -3305625.9      17.57325       340.73328     -6137.4423    
     10100  -3305608       -3305625.9      17.887869      346.83353     -6230.4443    
     10200  -3305607.6     -3305625.3      17.673678      342.68051     -4397.0412    
     10300  -3305607.1     -3305625.4      18.260088      354.05059     -7332.382     
     10400  -3305606.7     -3305625.3      18.659093      361.78703     -3708.9164    
     10500  -3305606.1     -3305624        17.847553      346.05182     -3382.2439    
     10600  -3305605.6     -3305624.4      18.742191      363.39825     -4852.7701    
     10700  -3305605.1     -3305625.2      20.112179      389.96137     -2542.12      
     10800  -3305604.6     -3305624.4      19.786386      383.64447     -5836.8324    
     10900  -3305604.2     -3305623.5      19.260887      373.45541     -4172.5549    
     11000  -3305603.8     -3305623.4      19.553484      379.12867     -6660.1184    
     11100  -3305603.5     -3305623.1      19.573388      379.51458     -140.44812    
     11200  -3305603.3     -3305624        20.708245      401.51868     -4320.5736    
     11300  -3305603.2     -3305623        19.843176      384.74559     -3961.5838    
     11400  -3305603.2     -3305623.1      19.926338      386.35804     -2114.2926    
     11500  -3305603.3     -3305623.2      19.835392      384.59466     -2334.3207    
     11600  -3305603.5     -3305624.1      20.547897      398.40965     -1070.9634    
     11700  -3305603.8     -3305622.9      19.093462      370.20915      485.9787     
     11800  -3305604.2     -3305624.2      19.973705      387.27647     -1595.4501    
     11900  -3305604.7     -3305625.2      20.463327      396.76989     -440.79373    
     12000  -3305605.2     -3305623.6      18.364876      356.08236     -1321.3435    
     12100  -3305605.7     -3305624.9      19.235637      372.96582     -1454.4721    
     12200  -3305606.2     -3305625.5      19.354164      375.26399     -3934.6907    
     12300  -3305606.7     -3305625.3      18.630189      361.22661     -2615.6489    
     12400  -3305607.1     -3305625.8      18.636748      361.35377     -2112.3889    
     12500  -3305607.5     -3305626.1      18.534225      359.36593     -4203.8529    
     12600  -3305607.9     -3305625.1      17.225013      333.98121     -5246.8363    
     12700  -3305608.1     -3305626.5      18.393133      356.63025     -1587.6951    
     12800  -3305608.3     -3305625.7      17.367948      336.75262     -2611.0778    
     12900  -3305608.4     -3305626        17.632576      341.88357     -1985.9824    
     13000  -3305608.3     -3305625.7      17.358914      336.57745     -3843.8784    
     13100  -3305608.2     -3305626.8      18.653598      361.68049      123.5189     
     13200  -3305608       -3305626.9      18.970557      367.82611     -2383.1979    
     13300  -3305607.7     -3305626.7      19.02444       368.87086     -402.69154    
     13400  -3305607.3     -3305625.7      18.33417       355.48701     -3616.3968    
     13500  -3305606.9     -3305626        19.052335      369.41173     -2431.7477    
     13600  -3305606.5     -3305625.8      19.223953      372.73927     -398.17635    
     13700  -3305606.1     -3305625.5      19.429701      376.7286      -4681.2619    
     13800  -3305605.6     -3305625.2      19.519046      378.46092     -2406.6115    
     13900  -3305605.2     -3305626.2      21.003694      407.24725     -3010.0004    
     14000  -3305604.9     -3305625.9      21.07945       408.7161      -3215.0347    
     14100  -3305604.5     -3305625.5      20.992362      407.02752     -4598.7555    
     14200  -3305604.3     -3305624        19.69153       381.80527     -3961.9593    
     14300  -3305604.1     -3305623.7      19.621762      380.45252     -5000.2489    
     14400  -3305604       -3305622.8      18.803903      364.5948      -4868.3503    
     14500  -3305603.8     -3305625.4      21.538259      417.61209     -1470.6955    
     14600  -3305603.8     -3305624.5      20.698072      401.32144     -3139.8012    
     14700  -3305603.9     -3305624.6      20.701792      401.39357     -4724.3128    
     14800  -3305604       -3305625.1      21.150712      410.09781     -2852.5549    
     14900  -3305604.1     -3305625.5      21.386378      414.66723     -3413.7288    
     15000  -3305604.3     -3305625.2      20.864286      404.54421     -2821.1578    
     15100  -3305604.6     -3305625        20.429802      396.11987     -3979.4807    
     15200  -3305604.9     -3305625        20.091966      389.56946     -2172.5565    
     15300  -3305605.2     -3305625.3      20.03798       388.5227      -1734.8545    
     15400  -3305605.6     -3305624.4      18.866146      365.80166     -3562.6419    
     15500  -3305605.8     -3305625.3      19.456797      377.25397     -3620.7982    
     15600  -3305606.1     -3305625.2      19.102464      370.38369     -3375.518     
     15700  -3305606.3     -3305627.4      21.059536      408.32998     -1902.5136    
     15800  -3305606.5     -3305626.3      19.785206      383.62159     -5376.4371    
     15900  -3305606.6     -3305627.1      20.527009      398.00464     -3935.9686    
     16000  -3305606.6     -3305626.8      20.162275      390.9327      -3676.1113    
     16100  -3305606.6     -3305626.7      20.055017      388.85305     -4200.3696    
     16200  -3305606.6     -3305626.8      20.201174      391.68693     -5001.3346    
     16300  -3305606.4     -3305626        19.568595      379.42165     -1286.7132    
     16400  -3305606.3     -3305626.9      20.636549      400.12854     -4302.4286    
     16500  -3305606       -3305627.7      21.705929      420.8631      -4932.464     
     16600  -3305605.7     -3305625.6      19.852061      384.91787     -4106.9443    
     16700  -3305605.4     -3305625.5      20.048396      388.72466     -3933.7147    
     16800  -3305605.1     -3305626.5      21.440845      415.7233      -3838.0501    
     16900  -3305604.7     -3305624.9      20.202196      391.70673     -3833.9696    
     17000  -3305604.4     -3305625.8      21.484146      416.56287     -3108.7842    
     17100  -3305604       -3305624.4      20.47429       396.98246     -1835.0895    
     17200  -3305603.6     -3305625.2      21.615872      419.11695     -1627.9462    
     17300  -3305603.3     -3305625.3      22.019694      426.94678     -2655.2876    
     17400  -3305603       -3305624.4      21.352556      414.01142     -2668.8041    
     17500  -3305602.8     -3305624.6      21.813208      422.94317     -5038.5573    
     17600  -3305602.6     -3305623.9      21.284273      412.68747     -1856.3783    
     17700  -3305602.5     -3305623.5      21.037823      407.90898     -5172.7268    
     17800  -3305602.4     -3305623.3      20.917916      405.58406     -3993.5914    
     17900  -3305602.3     -3305624.1      21.818139      423.03876     -1932.8544    
     18000  -3305602.3     -3305624.1      21.771316      422.13089     -4624.2914    
     18100  -3305602.3     -3305624.4      22.053346      427.59928     -3235.7728    
     18200  -3305602.4     -3305624.2      21.807424      422.83102     -4418.6488    
     18300  -3305602.5     -3305624.4      21.869921      424.04279     -3065.7476    
     18400  -3305602.6     -3305623.9      21.273502      412.47862     -2612.0132    
     18500  -3305602.8     -3305623.7      20.85946       404.45064     -3976.2711    
     18600  -3305603       -3305625.2      22.154714      429.56473     -3407.0391    
     18700  -3305603.2     -3305623.6      20.412539      395.78514     -3123.2669    
     18800  -3305603.3     -3305624.6      21.210301      411.2532      -4285.2502    
     18900  -3305603.5     -3305625.6      22.028665      427.12072     -5096.4632    
     19000  -3305603.7     -3305624.7      20.989728      406.97644     -4205.9777    
     19100  -3305603.9     -3305625.2      21.355539      414.06928     -2512.4759    
     19200  -3305604       -3305624.5      20.484788      397.186       -1756.3838    
     19300  -3305604.2     -3305624.6      20.410444      395.74453     -4313.4786    
     19400  -3305604.3     -3305625.1      20.885753      404.96045     -4681.0523    
     19500  -3305604.3     -3305624.1      19.786801      383.65251     -5158.2175    
     19600  -3305604.2     -3305626        21.735758      421.44146     -5948.4214    
     19700  -3305604.2     -3305624.3      20.127282      390.25421     -4451.0266    
     19800  -3305604       -3305625        20.932398      405.86486     -2623.3297    
     19900  -3305603.9     -3305624.8      20.87739       404.7983      -2595.8401    
     20000  -3305603.7     -3305625.4      21.667481      420.11761     -3070.9973    
     20100  -3305603.5     -3305625.3      21.848555      423.62852     -1523.6598    
     20200  -3305603.2     -3305624        20.776634      402.8447      -4206.2543    
     20300  -3305602.9     -3305623        20.128492      390.27768     -3925.3139    
     20400  -3305602.6     -3305624.3      21.722021      421.1751      -4914.3668    
     20500  -3305602.2     -3305624.8      22.55574       437.34034     -4276.6433    
     20600  -3305601.9     -3305624.9      22.951059      445.0053      -2564.1685    
     20700  -3305601.6     -3305622.9      21.294832      412.89221     -1101.479     
     20800  -3305601.4     -3305624.3      22.878475      443.59795     -6232.0373    
     20900  -3305601.2     -3305624.1      22.945362      444.89486     -4217.5392    
     21000  -3305601.1     -3305623.1      21.996461      426.4963      -4120.8332    
     21100  -3305601       -3305624.1      23.137693      448.62402     -108.59392    
     21200  -3305601       -3305623.5      22.486954      436.00664     -3918.8732    
     21300  -3305601       -3305623.8      22.809048      442.25182     -1504.7177    
     21400  -3305601.1     -3305623.6      22.446989      435.23174     -1347.2702    
     21500  -3305601.2     -3305623.2      21.983388      426.24284     -4149.111     
     21600  -3305601.4     -3305622.7      21.292577      412.84849     -455.86062    
     21700  -3305601.5     -3305624        22.494895      436.1606      -4729.8212    
     21800  -3305601.7     -3305623.6      21.887184      424.37751     -3095.4142    
     21900  -3305601.8     -3305623.4      21.542897      417.70201     -3427.954     
     22000  -3305601.9     -3305624.7      22.722182      440.56755     -6066.36      
     22100  -3305602       -3305625.6      23.54851       456.58947     -3990.8817    
     22200  -3305602.1     -3305625.5      23.398076      453.67267     -5052.3606    
     22300  -3305602.2     -3305622.8      20.562433      398.69149     -4351.0909    
     22400  -3305602.2     -3305624.1      21.91168       424.85247     -4286.2243    
     22500  -3305602.2     -3305623.9      21.648055      419.74096     -3580.5675    
     22600  -3305602.2     -3305624.7      22.439737      435.09113     -5631.5954    
     22700  -3305602.1     -3305624.5      22.421945      434.74615     -1559.5105    
     22800  -3305602       -3305624.7      22.662111      439.4028      -6285.3863    
     22900  -3305601.9     -3305624.2      22.325797      432.88191     -7934.0606    
     23000  -3305601.8     -3305625.3      23.438472      454.45591     -2796.5892    
     23100  -3305601.7     -3305624        22.316009      432.69212     -4338.0663    
     23200  -3305601.6     -3305624.5      22.937847      444.74915     -4327.596     
     23300  -3305601.5     -3305623.4      21.864119      423.9303      -1514.0176    
     23400  -3305601.4     -3305623.4      21.945727      425.51262     -2948.3574    
     23500  -3305601.4     -3305623.7      22.292954      432.24512     -4199.4646    
     23600  -3305601.3     -3305624.8      23.523571      456.10593     -3189.5257    
     23700  -3305601.3     -3305623.8      22.560437      437.43141     -1753.49      
     23800  -3305601.3     -3305623.7      22.432357      434.94804     -5399.3603    
     23900  -3305601.2     -3305624        22.75279       441.16101     -2845.4044    
     24000  -3305601.2     -3305623.5      22.329535      432.95438     -4040.6265    
     24100  -3305601.2     -3305624.2      23.012164      446.19009     -3651.0008    
     24200  -3305601.2     -3305624.3      23.067418      447.26142     -3240.4554    
     24300  -3305601.2     -3305623.9      22.719464      440.51485     -558.51837    
     24400  -3305601.2     -3305623.7      22.541323      437.06082     -2029.9394    
     24500  -3305601.1     -3305623.1      22.019396      426.94101     -2978.6057    
     24600  -3305601.1     -3305624.9      23.869447      462.81223     -1136.8294    
     24700  -3305601       -3305623.8      22.848384      443.01452     -4637.3548    
     24800  -3305600.9     -3305623.1      22.153092      429.53328     -6554.9598    
     24900  -3305600.8     -3305623.7      22.882416      443.67437      855.84719    
     25000  -3305600.7     -3305622.3      21.597689      418.7644      -3633.4441    
     25100  -3305600.6     -3305623.1      22.471699      435.71085     -1305.9301    
     25200  -3305600.5     -3305623.7      23.262798      451.04972     -1744.757     
     25300  -3305600.3     -3305623.9      23.60869       457.75633     -3969.2509    
     25400  -3305600.1     -3305623.6      23.519057      456.0184      -3206.8483    
     25500  -3305599.9     -3305623.5      23.567994      456.96725     -2475.0129    
     25600  -3305599.8     -3305623.6      23.827307      461.99517     -4847.0388    
     25700  -3305599.6     -3305623.5      23.919182      463.77655     -3546.2108    
     25800  -3305599.4     -3305623.8      24.41575       473.40466     -2658.0307    
     25900  -3305599.2     -3305622.3      23.110651      448.09968     -5096.4527    
     26000  -3305599       -3305623.1      24.147192      468.1975      -4189.3437    
     26100  -3305598.8     -3305622.1      23.257331      450.94372     -2867.2747    
     26200  -3305598.7     -3305622.5      23.79618       461.39163     -4475.3374    
     26300  -3305598.5     -3305621.8      23.285194      451.48396     -2821.0331    
     26400  -3305598.4     -3305623        24.527207      475.56575     -4433.0058    
     26500  -3305598.3     -3305622.5      24.142092      468.09862     -5510.4822    
     26600  -3305598.3     -3305623.2      24.962451      484.00482     -2192.7654    
     26700  -3305598.2     -3305621.6      23.362902      452.99066     -5586.0722    
     26800  -3305598.2     -3305622.9      24.623188      477.42675     -5420.2236    
     26900  -3305598.3     -3305622.2      23.959918      464.5664      -2034.5442    
     27000  -3305598.3     -3305624        25.735919      499.00184     -4013.2795    
     27100  -3305598.4     -3305623.2      24.800464      480.86401     -3938.9003    
     27200  -3305598.5     -3305622.8      24.292255      471.01019     -3338.4836    
     27300  -3305598.6     -3305623        24.358607      472.29671     -2312.9354    
     27400  -3305598.8     -3305622.3      23.519599      456.02892     -6765.3154    
     27500  -3305598.9     -3305624.1      25.15486       487.73551     -2743.2259    
     27600  -3305599.1     -3305622.7      23.560618      456.82425     -4842.543     
     27700  -3305599.2     -3305622.5      23.296143      451.69626     -3546.8153    
     27800  -3305599.4     -3305622.7      23.315098      452.06378     -4624.784     
     27900  -3305599.4     -3305622.7      23.243364      450.6729      -4774.7048    
     28000  -3305599.5     -3305622.3      22.846303      442.97416     -4347.7854    
     28100  -3305599.5     -3305623        23.461195      454.89649     -4252.3659    
     28200  -3305599.5     -3305623.3      23.808995      461.64011     -4064.0378    
     28300  -3305599.4     -3305623.2      23.757925      460.6499      -4301.6605    
     28400  -3305599.3     -3305624.7      25.417059      492.81937     -3251.3254    
     28500  -3305599.2     -3305623.2      23.971375      464.78855     -5096.0235    
     28600  -3305599.1     -3305623.4      24.331292      471.76708     -3109.8058    
     28700  -3305598.9     -3305621.3      22.414337      434.59864     -4511.3173    
     28800  -3305598.6     -3305623.2      24.575793      476.50779     -3106.525     
     28900  -3305598.4     -3305623.3      24.895717      482.71089     -3729.3521    
     29000  -3305598.1     -3305622        23.877469      462.96777     -3028.2028    
     29100  -3305597.8     -3305622.3      24.474076      474.53557     -4563.3081    
     29200  -3305597.5     -3305623.5      26.019122      504.49296     -3354.9042    
     29300  -3305597.2     -3305622.9      25.743899      499.15656     -3369.8917    
     29400  -3305596.9     -3305622        25.109545      486.85687     -5450.2996    
     29500  -3305596.6     -3305620.5      23.876288      462.94486     -3900.0304    
     29600  -3305596.3     -3305621.2      24.847528      481.77654     -2790.4734    
     29700  -3305596.1     -3305620.6      24.548737      475.98319     -3400.7533    
     29800  -3305595.8     -3305620.1      24.275808      470.6913      -2062.8285    
     29900  -3305595.6     -3305621.2      25.540716      495.21698     -3237.9069    
     30000  -3305595.4     -3305620.3      24.833206      481.49885     -3234.6358    
     30100  -3305595.3     -3305621.3      26.015086      504.41469     -3934.8631    
     30200  -3305595.2     -3305621.6      26.387257      511.63083     -4611.8882    
     30300  -3305595.1     -3305620.4      25.320298      490.94324     -2512.4756    
     30400  -3305595.1     -3305621.6      26.477631      513.38313     -6671.9025    
     30500  -3305595.2     -3305621.4      26.146913      506.97074     -8108.273     
     30600  -3305595.4     -3305622        26.622568      516.19336     -2789.1506    
     30700  -3305595.6     -3305621.2      25.553599      495.46678     -2212.8035    
     30800  -3305595.9     -3305620.7      24.804957      480.95113     -3624.9172    
     30900  -3305596.3     -3305620.8      24.498616      475.01138     -2320.7437    
     31000  -3305596.6     -3305622.4      25.758998      499.44932     -3432.9247    
     31100  -3305597       -3305621.1      24.132737      467.91724     -4927.0345    
     31200  -3305597.3     -3305620.9      23.609674      457.7754      -2560.6432    
     31300  -3305597.5     -3305621.6      24.107444      467.42682     -3481.2076    
     31400  -3305597.8     -3305622.6      24.766448      480.20445     -5251.9416    
     31500  -3305597.9     -3305623.2      25.221578      489.02912     -6381.7293    
     31600  -3305598.1     -3305622        23.908058      463.56087     -1294.4092    
     31700  -3305598.1     -3305621.8      23.675274      459.04735     -8248.5701    
     31800  -3305598       -3305623.1      25.099835      486.6686      -4084.6527    
     31900  -3305598       -3305622        24.060593      466.51841     -4027.7836    
     32000  -3305597.8     -3305622.4      24.606076      477.09497     -4775.8914    
     32100  -3305597.6     -3305622.3      24.732006      479.53666     -5182.1078    
     32200  -3305597.3     -3305622.1      24.784752      480.55937     -3610.8386    
     32300  -3305597       -3305622.4      25.446778      493.39559     -5124.4749    
     32400  -3305596.5     -3305620.9      24.350724      472.14385     -4510.1835    
     32500  -3305596.1     -3305621.6      25.558686      495.56541     -2863.834     
     32600  -3305595.6     -3305621.9      26.311644      510.16475     -2504.9247    
     32700  -3305595.1     -3305622.4      27.297716      529.28401     -1173.0362    
     32800  -3305594.6     -3305622        27.402792      531.32136     -5915.2609    
     32900  -3305594.2     -3305620.5      26.248114      508.93295     -4150.9402    
     33000  -3305593.8     -3305621        27.11316       525.70561     -4442.9755    
     33100  -3305593.5     -3305619.9      26.328047      510.4828      -5327.0241    
     33200  -3305593.3     -3305619.5      26.22648       508.51348     -4765.0642    
     33300  -3305593.1     -3305619.5      26.331255      510.545       -1315.354     
     33400  -3305593       -3305619.9      26.883534      521.25331     -5537.372     
     33500  -3305593       -3305619.2      26.201513      508.02938     -2880.9566    
     33600  -3305593.1     -3305620.5      27.387927      531.03315     -2998.0113    
     33700  -3305593.2     -3305619.6      26.420886      512.28287     -4030.2519    
     33800  -3305593.3     -3305619.4      26.12782       506.60054     -1647.087     
     33900  -3305593.5     -3305621.4      27.944259      541.82005     -4395.5744    
     34000  -3305593.7     -3305621.3      27.583032      534.81609     -4761.5687    
     34100  -3305594       -3305620        26.04177       504.93208     -1603.946     
     34200  -3305594.3     -3305620.1      25.846546      501.14683     -5265.8092    
     34300  -3305594.6     -3305620.2      25.630071      496.94951     -3034.4741    
     34400  -3305594.9     -3305623        28.111327      545.05937     -1953.0129    
     34500  -3305595.2     -3305620.6      25.466976      493.78722     -25.831856    
     34600  -3305595.4     -3305619.1      23.636362      458.29287     -3997.0347    
     34700  -3305595.7     -3305621.8      26.097539      506.01339     -3649.8422    
     34800  -3305595.9     -3305619.5      23.628297      458.1365      -3909.1035    
     34900  -3305595.9     -3305621.7      25.807844      500.39641     -3999.652     
     35000  -3305595.9     -3305619.9      24.035457      466.03105     -4410.4926    
     35100  -3305595.8     -3305621.4      25.591454      496.20076     -4565.0037    
     35200  -3305595.5     -3305619.8      24.243976      470.07409     -2859.5921    
     35300  -3305595.2     -3305620.3      25.102685      486.72386     -6744.6962    
     35400  -3305594.8     -3305619.8      25.077063      486.22707     -760.38159    
     35500  -3305594.3     -3305620.4      26.095601      505.97582     -5511.5263    
     35600  -3305593.8     -3305621.5      27.701286      537.10895     -5051.6564    
     35700  -3305593.2     -3305619.9      26.62835       516.30547     -2257.4477    
     35800  -3305592.7     -3305619.4      26.70339       517.76044     -2229.2573    
     35900  -3305592.2     -3305618.4      26.20796       508.1544      -3960.2958    
     36000  -3305591.7     -3305618.1      26.466637      513.16996     -1620.9457    
     36100  -3305591.2     -3305619.1      27.919518      541.34032     -2564.1393    
     36200  -3305590.7     -3305617.1      26.345365      510.81857      371.74725    
     36300  -3305590.3     -3305618.3      27.933398      541.60945     -1076.4335    
     36400  -3305590.1     -3305618.2      28.143336      545.68        -282.37222    
     36500  -3305589.9     -3305618        28.038811      543.65335     -2445.2373    
     36600  -3305589.8     -3305617.7      27.834781      539.69734     -2829.7141    
     36700  -3305589.9     -3305617.5      27.63681       535.85881     -3301.0012    
     36800  -3305590       -3305619.2      29.1874        565.92368     -3618.6364    
     36900  -3305590.3     -3305617.4      27.06951       524.85926     -2755.6965    
     37000  -3305590.7     -3305617.4      26.74611       518.58876     -3285.694     
     37100  -3305591.1     -3305619.8      28.677043      556.02822     -2551.0304    
     37200  -3305591.6     -3305617.4      25.854398      501.29906     -4634.825     
     37300  -3305592       -3305619.4      27.398216      531.23264     -3267.5975    
     37400  -3305592.3     -3305619.9      27.536628      533.91635     -711.93376    
     37500  -3305592.7     -3305616.8      24.086805      467.02665     -3205.6357    
     37600  -3305592.9     -3305618.3      25.332017      491.17045     -2220.6407    
     37700  -3305593.2     -3305620.3      27.123514      525.90635     -1845.8678    
     37800  -3305593.3     -3305617.9      24.619258      477.35055     -2147.9843    
     37900  -3305593.5     -3305618.9      25.474633      493.93569     -3006.6856    
     38000  -3305593.5     -3305619.4      25.905272      502.28548     -2823.4227    
     38100  -3305593.5     -3305619.6      26.129335      506.62991     -2081.7985    
     38200  -3305593.4     -3305618.7      25.31312       490.80406     -3862.2964    
     38300  -3305593.2     -3305619.7      26.489768      513.61845     -3517.3887    
     38400  -3305592.9     -3305619.3      26.391528      511.71365     -229.23384    
     38500  -3305592.6     -3305618.4      25.769892      499.66055     -4010.4689    
     38600  -3305592.2     -3305618.3      26.107785      506.21208     -3722.5343    
     38700  -3305591.7     -3305618.8      27.094504      525.34387     -4278.4572    
     38800  -3305591.1     -3305617.6      26.530365      514.40559     -5368.3869    
     38900  -3305590.5     -3305618.5      28.031396      543.50956     -5563.1413    
     39000  -3305589.9     -3305617.7      27.830036      539.60533      563.73269    
     39100  -3305589.3     -3305618        28.763988      557.71403     -1797.9984    
     39200  -3305588.7     -3305616.3      27.654777      536.20718     -2255.7503    
     39300  -3305588.2     -3305616.9      28.676341      556.01462     -43.980329    
     39400  -3305587.7     -3305615.4      27.649759      536.10988     -3405.2747    
     39500  -3305587.4     -3305617.4      29.968322      581.06524     -3796.7942    
     39600  -3305587.2     -3305617.7      30.59195       593.15696     -1335.4223    
     39700  -3305587       -3305617.3      30.303674      587.56748     -3162.1492    
     39800  -3305587       -3305616.3      29.301112      568.1285      -4005.4092    
     39900  -3305587.2     -3305616.2      28.991074      562.11706     -3490.194     
     40000  -3305587.4     -3305615.1      27.65023       536.11902     -1851.1023    
     40100  -3305587.7     -3305615.4      27.674402      536.58769     -3225.9102    
     40200  -3305588.1     -3305616.2      28.132122      545.46257     -5862.0989    
     40300  -3305588.5     -3305616.3      27.768528      538.41273     -5292.2613    
     40400  -3305588.9     -3305616.3      27.346168      530.22346     -2162.2737    
     40500  -3305589.4     -3305617.6      28.230949      547.37875     -2924.9157    
     40600  -3305589.9     -3305619.3      29.449569      571.00696     -5814.2124    
     40700  -3305590.3     -3305618.9      28.522515      553.03203     -4667.1776    
     40800  -3305590.7     -3305617.6      26.811327      519.85326     -2575.8857    
     40900  -3305591.1     -3305618.7      27.645972      536.03647     -4990.3819    
     41000  -3305591.4     -3305618.6      27.206441      527.51426     -3770.5294    
     41100  -3305591.6     -3305618        26.412207      512.11459     -2321.5377    
     41200  -3305591.8     -3305618.7      26.939951      522.3472      -3146.1666    
     41300  -3305591.9     -3305619.3      27.383948      530.95598     -5304.6079    
     41400  -3305591.9     -3305620.2      28.287694      548.479       -6416.0754    
     41500  -3305591.8     -3305619.2      27.381025      530.89931     -4373.6609    
     41600  -3305591.6     -3305619.2      27.609086      535.32127     -1328.3225    
     41700  -3305591.3     -3305619        27.719628      537.4646      -4933.1485    
     41800  -3305590.9     -3305618        27.088932      525.23584     -3838.0268    
     41900  -3305590.5     -3305619        28.525122      553.08257     -2461.5033    
     42000  -3305590       -3305618.2      28.135144      545.52118     -4417.5632    
     42100  -3305589.5     -3305619        29.51791       572.33205     -1593.906     
     42200  -3305589       -3305617.9      28.929299      560.91928     -1969.6138    
     42300  -3305588.5     -3305617.4      28.919727      560.7337      -3951.0838    
     42400  -3305588       -3305617.1      29.061975      563.49178     -6049.5425    
     42500  -3305587.6     -3305618.6      30.985236      600.7825      -1168.2112    
     42600  -3305587.2     -3305615.4      28.137109      545.55927     -1623.0717    
     42700  -3305586.9     -3305615.6      28.644656      555.40025     -4089.5137    
     42800  -3305586.7     -3305616.1      29.347256      569.02319     -2071.8832    
     42900  -3305586.6     -3305617.2      30.625885      593.81493     -4535.703     
     43000  -3305586.5     -3305617        30.470033      590.79306     -4209.6255    
     43100  -3305586.5     -3305615.9      29.314226      568.38276     -762.82069    
     43200  -3305586.6     -3305616.5      29.921546      580.15827     -1447.3438    
     43300  -3305586.8     -3305617.8      31.063861      602.30699     -1391.366     
     43400  -3305587       -3305617.1      30.10641       583.74266     -2970.746     
     43500  -3305587.3     -3305617.8      30.414754      589.72125     -3404.0126    
     43600  -3305587.7     -3305617.8      30.068907      583.0155      -4087.4865    
     43700  -3305588.1     -3305617.1      28.934265      561.01558     -2704.1884    
     43800  -3305588.5     -3305619.1      30.578506      592.89628     -3887.1201    
     43900  -3305588.9     -3305619.7      30.756899      596.3552      -3191.561     
     44000  -3305589.3     -3305618.3      28.955478      561.42689     -4005.814     
     44100  -3305589.7     -3305619        29.233781      566.82299     -2060.7079    
     44200  -3305590.1     -3305618.9      28.815356      558.71001     -4297.4029    
     44300  -3305590.3     -3305617.8      27.502345      533.25162     -2306.8055    
     44400  -3305590.4     -3305618.1      27.746232      537.98044     -4298.0194    
     44500  -3305590.4     -3305620.1      29.623503      574.37943     -2412.6046    
     44600  -3305590.4     -3305618.9      28.437018      551.37429     -5512.961     
     44700  -3305590.3     -3305617.7      27.387408      531.02309     -4531.403     
     44800  -3305590.1     -3305618.4      28.287897      548.48295     -1895.7575    
     44900  -3305589.9     -3305619.4      29.54553       572.86758     -2446.0154    
     45000  -3305589.5     -3305618.6      29.073732      563.71975     -3909.7963    
     45100  -3305589.1     -3305617.6      28.460812      551.83564     -1529.8676    
     45200  -3305588.6     -3305615.9      27.324137      529.79629     -4102.0232    
     45300  -3305588.1     -3305617.4      29.343476      568.9499      -2916.2304    
     45400  -3305587.6     -3305616.1      28.58171       554.17978     -5349.4794    
     45500  -3305587       -3305617.5      30.502512      591.42282     -1654.1916    
     45600  -3305586.5     -3305616.8      30.341743      588.3056      -2314.2334    
     45700  -3305586       -3305616.2      30.169352      584.96306     -4579.3276    
     45800  -3305585.6     -3305616        30.411173      589.65181     -3798.6449    
     45900  -3305585.3     -3305615.6      30.277907      587.06787     -2719.7288    
     46000  -3305585.1     -3305615.7      30.596418      593.24358     -5919.348     
     46100  -3305584.9     -3305616.7      31.82198       617.0064      -2366.0943    
     46200  -3305584.8     -3305616.4      31.591569      612.53888     -4134.9093    
     46300  -3305584.9     -3305614.2      29.392363      569.89778     -1892.8095    
     46400  -3305584.9     -3305616.9      31.994199      620.3456      -1459.2227    
     46500  -3305585.1     -3305615.7      30.62594       593.816       -3974.7522    
     46600  -3305585.3     -3305614.8      29.497683      571.93986     -2091.927     
     46700  -3305585.6     -3305615.8      30.209314      585.73791     -697.99279    
     46800  -3305585.9     -3305615.4      29.499497      571.97503     -5186.4235    
     46900  -3305586.2     -3305614.6      28.358911      549.85986     -3914.4565    
     47000  -3305586.5     -3305616        29.433627      570.69786     -2949.1187    
     47100  -3305586.8     -3305618        31.234377      605.61318     -3442.4212    
     47200  -3305587.1     -3305616.2      29.105987      564.34515     -5957.1748    
     47300  -3305587.3     -3305618.1      30.8917        598.96889     -898.47388    
     47400  -3305587.4     -3305615.8      28.419128      551.02742     -3005.0638    
     47500  -3305587.5     -3305618.5      31.019768      601.45205     -4232.9708    
     47600  -3305587.5     -3305616.9      29.420705      570.44732     -3043.4208    
     47700  -3305587.5     -3305616.5      29.019816      562.67435     -4925.5684    
     47800  -3305587.3     -3305616.5      29.139463      564.99422     -1582.2278    
     47900  -3305587.1     -3305616.2      29.15461       565.28792     -3910.4753    
     48000  -3305586.8     -3305617.4      30.624646      593.7909       259.4093     
     48100  -3305586.5     -3305615.4      28.88987       560.15479      279.8787     
     48200  -3305586.1     -3305615.4      29.317061      568.43773     -2851.5875    
     48300  -3305585.7     -3305614.3      28.655385      555.60828     -1408.1628    
     48400  -3305585.2     -3305614.6      29.412797      570.29398     -771.08132    
     48500  -3305584.7     -3305614.5      29.88612       579.4714       650.69648    
     48600  -3305584.1     -3305615.6      31.455764      609.90572      261.35617    
     48700  -3305583.7     -3305614.7      31.025008      601.55366     -3330.6152    
     48800  -3305583.2     -3305615.3      32.08866       622.17713     -2246.0252    
     48900  -3305582.9     -3305615.2      32.348522      627.21567     -2298.147     
     49000  -3305582.6     -3305614.1      31.463204      610.04998     -1804.8747    
     49100  -3305582.4     -3305613.9      31.511945      610.99502      322.51856    
     49200  -3305582.3     -3305613.5      31.148996      603.9577      -1634.8256    
     49300  -3305582.3     -3305615.8      33.530362      650.13075     -598.7972     
     49400  -3305582.3     -3305615.5      33.208555      643.89113     -698.52374    
     49500  -3305582.4     -3305615        32.586345      631.8269      -3404.4281    
     49600  -3305582.6     -3305613.1      30.507305      591.51574      196.112      
     49700  -3305582.9     -3305613.3      30.427418      589.96679     -1101.299     
     49800  -3305583.2     -3305614.9      31.6846        614.34269     -226.97687    
     49900  -3305583.6     -3305614.6      31.047063      601.98129     -4610.5358    
     50000  -3305584       -3305616        31.995963      620.37981     -2407.3951    
Loop time of 8132.56 on 72 procs for 50000 steps with 400 atoms

Performance: 1.062 ns/day, 22.590 hours/ns, 6.148 timesteps/s, 2.459 katom-step/s
92.7% CPU use with 72 MPI tasks x 1 OpenMP threads

MPI task timing breakdown:
Section |  min time  |  avg time  |  max time  |%varavg| %total
---------------------------------------------------------------
Pair    | 3972.1     | 6182.1     | 7324.5     | 761.9 | 76.02
Bond    | 0.023997   | 0.042983   | 0.070791   |   4.5 |  0.00
Neigh   | 0.078154   | 0.10995    | 0.12581    |   2.7 |  0.00
Comm    | 799.79     | 1942.1     | 4151.2     |1359.2 | 23.88
Output  | 0.35962    | 0.36357    | 0.5875     |   4.4 |  0.00
Modify  | 5.5926     | 5.9573     | 6.897      |   7.5 |  0.07
Other   |            | 1.847      |            |       |  0.02

Nlocal:        5.55556 ave           9 max           2 min
Histogram: 1 4 11 0 18 20 0 14 2 2
Nghost:        377.264 ave         392 max         364 min
Histogram: 3 5 9 10 14 10 9 5 5 2
Neighs:              0 ave           0 max           0 min
Histogram: 72 0 0 0 0 0 0 0 0 0
FullNghs:      466.111 ave         763 max         166 min
Histogram: 1 4 8 6 15 20 4 10 2 2

Total # of neighbors = 33560
Ave neighs/atom = 83.9
Ave special neighs/atom = 0
Neighbor list builds = 2202
Dangerous builds = 0
unfix therm_equ

fix therm_equ2 all nvt temp 600 300 1.0
run 100000
Per MPI rank memory allocation (min/avg/max) = 8.036 | 8.036 | 8.036 Mbytes
   Step         TotEng         PotEng         KinEng          Temp          Press     
     50000  -3305584       -3305616        31.995963      620.37981     -2407.3951    
     50100  -3305584       -3305615.5      31.527508      611.29678      681.68958    
     50200  -3305584       -3305615.4      31.393271      608.69401     -1930.9894    
     50300  -3305584.1     -3305615.2      31.097411      602.9575      -1168.0337    
     50400  -3305584.2     -3305616.3      32.10229       622.4414      -2616.1877    
     50500  -3305584.4     -3305616.1      31.687109      614.39133     -4346.9226    
     50600  -3305584.6     -3305615.1      30.454913      590.4999      -3453.3364    
     50700  -3305585       -3305616        31.020998      601.47591     -3429.4622    
     50800  -3305585.4     -3305618        32.604159      632.17231      37.231157    
     50900  -3305585.9     -3305616.9      30.9707        600.50066     -3105.1416    
     51000  -3305586.6     -3305618        31.44401       609.67782     -2907.2272    
     51100  -3305587.2     -3305618.3      31.113852      603.27627     -3840.1112    
     51200  -3305587.8     -3305618.6      30.836569      597.89995     -1555.8941    
     51300  -3305588.3     -3305616.8      28.540176      553.37446     -4123.3928    
     51400  -3305588.6     -3305617        28.41812       551.00787      562.90913    
     51500  -3305588.8     -3305617.2      28.3843        550.35214     -3300.8979    
     51600  -3305588.8     -3305618.6      29.77206       577.25985     -2952.4506    
     51700  -3305588.8     -3305616.8      28.026465      543.41396     -3246.6669    
     51800  -3305588.6     -3305617.5      28.9372        561.07248     -4276.8895    
     51900  -3305588.3     -3305617.4      29.172956      565.64363      2188.1573    
     52000  -3305587.8     -3305617        29.183211      565.84246     -1378.498     
     52100  -3305587.3     -3305616.4      29.092674      564.08701     -2306.1452    
     52200  -3305586.7     -3305618.1      31.416481      609.14404     -3905.6323    
     52300  -3305586.3     -3305617        30.753442      596.28818     -1331.9873    
     52400  -3305585.9     -3305616.9      31.043654      601.91518      17.037729    
     52500  -3305585.6     -3305615.3      29.714719      576.14805     -2592.2426    
     52600  -3305585.5     -3305614.8      29.372148      569.50583     -26.191246    
     52700  -3305585.4     -3305616.7      31.348293      607.82194     -943.44607    
     52800  -3305585.4     -3305615.5      30.12668       584.13569     -2845.7427    
     52900  -3305585.3     -3305615        29.643314      574.76354     -3465.2696    
     53000  -3305585.3     -3305615.7      30.336957      588.21282     -481.2601     
     53100  -3305585.3     -3305616.7      31.344741      607.75305     -472.61104    
     53200  -3305585.3     -3305615.3      29.987932      581.44545     -125.1038     
     53300  -3305585.3     -3305614.7      29.395553      569.95963      105.85038    
     53400  -3305585.2     -3305615.4      30.192431      585.41056     -1037.6151    
     53500  -3305585.1     -3305616.1      31.011294      601.28775     -1396.4628    
     53600  -3305585       -3305614.7      29.732467      576.49217     -964.41246    
     53700  -3305584.8     -3305616.1      31.288275      606.65821     -783.83487    
     53800  -3305584.7     -3305613.5      28.791993      558.25702     -1787.6583    
     53900  -3305584.5     -3305614        29.530298      572.57225     -3513.2508    
     54000  -3305584.3     -3305615.8      31.468255      610.14791     -21.747673    
     54100  -3305584       -3305614.6      30.576749      592.86221     -552.91076    
     54200  -3305583.7     -3305613.5      29.81842       578.15873     -4751.8547    
     54300  -3305583.3     -3305612.3      29.02619       562.79795     -258.42087    
     54400  -3305582.8     -3305614.4      31.552418      611.77977     -2283.3147    
     54500  -3305582.3     -3305614.9      32.547837      631.08027      2356.0489    
     54600  -3305581.9     -3305613.4      31.533378      611.41059     -1771.8478    
     54700  -3305581.5     -3305613        31.534981      611.44168     -3956.0124    
     54800  -3305581.2     -3305613.4      32.218237      624.68955     -828.0079     
     54900  -3305581       -3305612.2      31.213331      605.2051      -4332.5893    
     55000  -3305580.9     -3305613.7      32.780811      635.59746     -1118.4974    
     55100  -3305581       -3305611.5      30.433821      590.09094      1401.0066    
     55200  -3305581.4     -3305612.9      31.534744      611.43708     -2418.7283    
     55300  -3305582       -3305613.8      31.878225      618.09695     -363.39387    
     55400  -3305582.8     -3305614        31.239283      605.7083      -2166.0117    
     55500  -3305583.7     -3305613.5      29.724778      576.34309      127.79194    
     55600  -3305584.5     -3305612.7      28.152727      545.8621      -902.37361    
     55700  -3305585.1     -3305614.9      29.794669      577.69822      1649.1122    
     55800  -3305585.5     -3305614.9      29.422225      570.47678     -2220.2956    
     55900  -3305585.7     -3305615.4      29.617209      574.25739      3184.451     
     56000  -3305586       -3305614.6      28.594826      554.43408     -3834.201     
     56100  -3305586.1     -3305616.9      30.813349      597.44973     -3506.3496    
     56200  -3305586.1     -3305615        28.965118      561.6138       661.64137    
     56300  -3305586       -3305615.8      29.775698      577.33038     -2901.8177    
     56400  -3305586       -3305617.3      31.329633      607.46012     -467.68772    
     56500  -3305586       -3305614.5      28.498138      552.55937      634.2805     
     56600  -3305585.9     -3305614.9      28.979929      561.90097     -2835.1843    
     56700  -3305585.9     -3305617.7      31.818941      616.94746      398.21495    
     56800  -3305585.9     -3305616.5      30.663366      594.54165     -3192.6853    
     56900  -3305585.9     -3305616.4      30.50624       591.4951       964.76421    
     57000  -3305586.1     -3305617.4      31.36475       608.14101     -3474.8659    
     57100  -3305586.3     -3305616        29.69048       575.67807     -1184.0332    
     57200  -3305586.5     -3305616.6      30.09998       583.61799     -460.41929    
     57300  -3305586.9     -3305616.1      29.161989      565.43099     -3245.7211    
     57400  -3305587.3     -3305615.2      27.859328      540.17328     -248.47616    
     57500  -3305587.8     -3305616.7      28.969336      561.69558     -2570.7723    
     57600  -3305588.2     -3305617.3      29.055208      563.36058     -2349.9275    
     57700  -3305588.6     -3305617.5      28.877653      559.9179      -3397.2121    
     57800  -3305589       -3305617.3      28.338915      549.47215     -1069.3379    
     57900  -3305589.3     -3305618.3      28.984325      561.9862      -1384.369     
     58000  -3305589.6     -3305616.9      27.279804      528.93671     -3829.0526    
     58100  -3305589.8     -3305619.2      29.342702      568.93489     -1811.6904    
     58200  -3305590       -3305617.9      27.967518      542.27102     -3488.5281    
     58300  -3305590       -3305617.8      27.824845      539.50468     -3522.6038    
     58400  -3305589.8     -3305617.8      27.972065      542.35918     -2805.969     
     58500  -3305589.5     -3305617.3      27.737486      537.81085     -2841.9348    
     58600  -3305589       -3305617.4      28.391169      550.48532     -3451.3135    
     58700  -3305588.2     -3305617.3      29.061553      563.48361     -660.68201    
     58800  -3305587.3     -3305616.9      29.64          574.69931     -7709.5701    
     58900  -3305586.5     -3305617.2      30.680083      594.86578     -1537.6809    
     59000  -3305585.9     -3305617.3      31.409481      609.00832     -926.72682    
     59100  -3305585.5     -3305616.3      30.812897      597.44097     -5360.0405    
     59200  -3305585.3     -3305616.1      30.792171      597.03911     -1274.4683    
     59300  -3305585.3     -3305616.1      30.814629      597.47455     -1944.1026    
     59400  -3305585.3     -3305616.7      31.415135      609.11795     -2721.491     
     59500  -3305585.4     -3305613.8      28.435053      551.33621     -1032.6627    
     59600  -3305585.6     -3305616.2      30.628512      593.86586     -2138.8092    
     59700  -3305585.8     -3305616.1      30.289392      587.29057     -7342.5964    
     59800  -3305586.2     -3305617.1      30.887137      598.88042      2086.6566    
     59900  -3305586.7     -3305616.9      30.226205      586.06541     -8527.7551    
     60000  -3305587.2     -3305618        30.806136      597.30987     -2161.9395    
     60100  -3305587.8     -3305615.9      28.098323      544.80724     -2288.6528    
     60200  -3305588.2     -3305619.1      30.943802      599.97912     -212.90947    
     60300  -3305588.6     -3305617.3      28.749816      557.43923     -2571.3185    
     60400  -3305588.9     -3305619.1      30.140305      584.39987     -2989.7972    
     60500  -3305589.2     -3305617.7      28.468364      551.98208     -7126.3641    
     60600  -3305589.4     -3305618        28.616123      554.84703     -894.99458    
     60700  -3305589.6     -3305620.4      30.821525      597.60825     -4000.1803    
     60800  -3305589.7     -3305619        29.32083       568.5108      -4215.9954    
     60900  -3305589.8     -3305618.7      28.87321       559.83177     -54.518181    
     61000  -3305589.9     -3305617.4      27.467352      532.57314     -1244.6271    
     61100  -3305590       -3305618        27.976986      542.4546      -2288.23      
     61200  -3305590       -3305617.6      27.538263      533.94805     -2401.7318    
     61300  -3305590       -3305618.7      28.664662      555.78817     -2150.4524    
     61400  -3305590       -3305619.7      29.65409       574.97249      737.64808    
     61500  -3305590       -3305620.2      30.241927      586.37025     -6603.4858    
     61600  -3305589.9     -3305620.4      30.481007      591.00584     -1276.5088    
     61700  -3305589.9     -3305617.9      28.057719      544.01996     -2669.2193    
     61800  -3305589.8     -3305618.3      28.445701      551.54265     -2568.2552    
     61900  -3305589.7     -3305619.8      30.094622      583.51411     -2499.3778    
     62000  -3305589.5     -3305618.2      28.718198      556.82619     -3104.2274    
     62100  -3305589.1     -3305618.4      29.275099      567.62412     -1510.108     
     62200  -3305588.7     -3305616.8      28.129844      545.41841     -4110.5693    
     62300  -3305588.2     -3305618.3      30.055414      582.75388     -1322.7779    
     62400  -3305587.6     -3305617.8      30.150679      584.60102     -2354.1202    
     62500  -3305587.2     -3305616.4      29.24878       567.1138      -303.886      
     62600  -3305586.8     -3305618.3      31.429831      609.40288     -3543.9883    
     62700  -3305586.6     -3305617.6      31.058521      602.20345     -715.37612    
     62800  -3305586.4     -3305615.9      29.437309      570.76925     -2630.8391    
     62900  -3305586.3     -3305615.9      29.535495      572.67302     -911.85202    
     63000  -3305586.3     -3305614.9      28.640115      555.31222     -2469.3028    
     63100  -3305586.3     -3305616.9      30.593712      593.19111     -4712.9079    
     63200  -3305586.4     -3305616.2      29.800703      577.81521     -2382.3761    
     63300  -3305586.5     -3305616.9      30.410389      589.6366      -998.51413    
     63400  -3305586.8     -3305615.4      28.557723      553.71468      14.432731    
     63500  -3305587.3     -3305617.5      30.248063      586.48921     -3244.8834    
     63600  -3305587.9     -3305617.6      29.660302      575.09294     -1563.7451    
     63700  -3305588.6     -3305617.3      28.706088      556.59138     -2426.9945    
     63800  -3305589.1     -3305617.7      28.545806      553.48362     -3275.2454    
     63900  -3305589.6     -3305617.2      27.581571      534.78776     -1485.4043    
     64000  -3305590       -3305618.3      28.357422      549.83098     -4757.8824    
     64100  -3305590.2     -3305618.7      28.483266      552.27102     -4375.7399    
     64200  -3305590.4     -3305618.8      28.355286      549.78957     -3890.0109    
     64300  -3305590.6     -3305619        28.402165      550.69852     -3330.1414    
     64400  -3305590.7     -3305618.5      27.79226       538.87288     -2932.5051    
     64500  -3305590.8     -3305619.8      28.972671      561.76025     -291.18595    
     64600  -3305590.9     -3305618.7      27.809962      539.21611     -4391.9556    
     64700  -3305591       -3305619.4      28.395408      550.56752     -2478.4997    
     64800  -3305591       -3305619.6      28.546856      553.50398     -3704.6992    
     64900  -3305591       -3305619        28.020625      543.30073     -4218.2052    
     65000  -3305591       -3305618.7      27.639617      535.91324     -2413.2168    
     65100  -3305591.1     -3305620.1      29.038178      563.03039     -4089.4138    
     65200  -3305591.2     -3305620.8      29.653182      574.95489     -4803.9103    
     65300  -3305591.3     -3305618.9      27.631715      535.76003     -5038.6247    
     65400  -3305591.4     -3305618.2      26.84424       520.49142     -3161.2906    
     65500  -3305591.6     -3305619.2      27.641563      535.95096     -4212.2846    
     65600  -3305591.9     -3305620.6      28.702813      556.52789     -2504.1512    
     65700  -3305592.2     -3305621.4      29.167445      565.53677     -3141.3802    
     65800  -3305592.6     -3305619.9      27.250146      528.36167     -5047.1468    
     65900  -3305593.1     -3305621        27.896243      540.88904     -2744.8306    
     66000  -3305593.5     -3305620.5      26.931139      522.17634     -130.29105    
     66100  -3305593.9     -3305622.3      28.377684      550.22385     -3745.5807    
     66200  -3305594.2     -3305621.2      27.014149      523.78585     -2924.3438    
     66300  -3305594.4     -3305622.1      27.682268      536.74021     -4915.8709    
     66400  -3305594.5     -3305619.9      25.374068      491.98579     -5259.3542    
     66500  -3305594.5     -3305620.4      25.907362      502.326       -333.0136     
     66600  -3305594.3     -3305619.5      25.178904      488.2017      -2309.2285    
     66700  -3305594       -3305621.2      27.161405      526.64104     -4692.9845    
     66800  -3305593.6     -3305621.7      28.107949      544.99388     -1579.7051    
     66900  -3305593.1     -3305620.2      27.113548      525.71313     -6863.6927    
     67000  -3305592.5     -3305620.1      27.642322      535.96569     -2044.3526    
     67100  -3305591.9     -3305619.4      27.520196      533.59775     -2585.2784    
     67200  -3305591.4     -3305619.7      28.323561      549.17445     -5583.6603    
     67300  -3305591       -3305619.5      28.472984      552.07165     -690.79607    
     67400  -3305590.7     -3305618.7      27.945384      541.84186     -1529.307     
     67500  -3305590.5     -3305618.3      27.758013      538.20886     -5576.1828    
     67600  -3305590.3     -3305620.4      30.103938      583.69474     -1418.1207    
     67700  -3305590.2     -3305617.9      27.640368      535.92781     -1301.2435    
     67800  -3305590.2     -3305618.3      28.164276      546.08601     -5464.497     
     67900  -3305590.2     -3305618.2      27.962046      542.16492     -2310.2193    
     68000  -3305590.3     -3305619.7      29.397149      569.99058     -3770.9166    
     68100  -3305590.4     -3305617.8      27.425379      531.75932     -3066.4569    
     68200  -3305590.6     -3305619.4      28.810162      558.6093      -4395.141     
     68300  -3305590.8     -3305619.4      28.627067      555.05922     -4615.8883    
     68400  -3305591.1     -3305619.7      28.644593      555.39903     -4552.9354    
     68500  -3305591.4     -3305619.3      27.916178      541.27558     -4769.2816    
     68600  -3305591.7     -3305617.3      25.623397      496.82012     -5218.661     
     68700  -3305592.1     -3305619.4      27.274665      528.83706      509.54827    
     68800  -3305592.5     -3305619.9      27.383501      530.94732     -3809.5336    
     68900  -3305592.9     -3305619.7      26.842725      520.46205     -7161.9165    
     69000  -3305593.2     -3305618        24.733459      479.56483     -2339.375     
     69100  -3305593.6     -3305621.8      28.160204      546.00707     -3303.0496    
     69200  -3305594       -3305620.6      26.651365      516.75172     -3712.0535    
     69300  -3305594.4     -3305621.6      27.130395      526.03977     -2876.2679    
     69400  -3305594.9     -3305621.9      26.958776      522.7122      -2882.558     
     69500  -3305595.5     -3305619.6      24.080333      466.90116     -2596.2127    
     69600  -3305596.1     -3305621.6      25.518286      494.78208     -4059.2727    
     69700  -3305596.5     -3305621.9      25.324737      491.0293      -5090.3696    
     69800  -3305596.9     -3305622.4      25.53666       495.13835     -2089.4639    
     69900  -3305597.1     -3305624.4      27.306422      529.45282     -4597.3825    
     70000  -3305597.1     -3305623.2      26.072438      505.52671     -905.61457    
     70100  -3305597       -3305624.2      27.233302      528.03507     -328.95899    
     70200  -3305596.7     -3305623.4      26.680922      517.32479     -4031.1763    
     70300  -3305596.2     -3305621.8      25.584257      496.06121     -2463.4719    
     70400  -3305595.5     -3305623.7      28.161877      546.03951     -1815.8288    
     70500  -3305594.7     -3305622.2      27.494586      533.10119     -3169.2027    
     70600  -3305593.9     -3305622.9      28.958504      561.48556     -1989.7778    
     70700  -3305593.4     -3305621.5      28.079867      544.44938     -1932.4702    
     70800  -3305593.1     -3305620.7      27.5776        534.71078     -1787.0808    
     70900  -3305593       -3305619.5      26.58685       515.50081     -3999.1026    
     71000  -3305592.8     -3305620.8      27.992703      542.75933     -658.15908    
     71100  -3305592.8     -3305623        30.169522      584.96636     -3995.9074    
     71200  -3305592.8     -3305621.2      28.406702      550.78649     -3106.4864    
     71300  -3305592.8     -3305620        27.229518      527.96171     -1518.0408    
     71400  -3305592.8     -3305619.7      26.894085      521.45788     -1930.1865    
     71500  -3305592.9     -3305620.5      27.617878      535.49174     -4453.3065    
     71600  -3305593       -3305621.4      28.472737      552.06687      265.56492    
     71700  -3305593.1     -3305620        26.93739       522.29753     -2939.9513    
     71800  -3305593.3     -3305621.6      28.372838      550.12989     -2575.4012    
     71900  -3305593.5     -3305621.1      27.601514      535.17444     -1689.9728    
     72000  -3305593.7     -3305621.1      27.33243       529.95709     -4106.5       
     72100  -3305594       -3305623.1      29.104426      564.31489     -1994.6022    
     72200  -3305594.4     -3305622        27.652293      536.15901     -5020.046     
     72300  -3305594.8     -3305620.8      26.0768        505.61129      1121.2982    
     72400  -3305595.2     -3305621.4      26.174893      507.51324     -5665.8574    
     72500  -3305595.6     -3305621.7      26.049391      505.07984     -4752.354     
     72600  -3305596       -3305622.7      26.717759      518.03904     -2359.9237    
     72700  -3305596.3     -3305622.8      26.506374      513.94043     -3508.0073    
     72800  -3305596.6     -3305623.7      27.126589      525.96598     -2240.6682    
     72900  -3305596.8     -3305623.7      26.920076      521.96183     -2096.2969    
     73000  -3305596.9     -3305621.8      24.963289      484.02108     -3104.7419    
     73100  -3305596.9     -3305622.9      25.969317      503.52727      95.773125    
     73200  -3305596.8     -3305621.9      25.106465      486.79716      642.27886    
     73300  -3305596.6     -3305622.6      25.942632      503.00987     -3852.7049    
     73400  -3305596.1     -3305623.2      27.08047       525.07177     -3345.2999    
     73500  -3305595.4     -3305622.2      26.860852      520.81352      40.00063     
     73600  -3305594.4     -3305621.9      27.492058      533.05216     -1377.1127    
     73700  -3305593.6     -3305621.5      27.841639      539.83031     -1066.3626    
     73800  -3305593.1     -3305620.2      27.09919       525.43473     -2319.5038    
     73900  -3305592.8     -3305620.7      27.863455      540.2533      -603.24517    
     74000  -3305592.6     -3305619.5      26.852476      520.65112      26.100638    
     74100  -3305592.6     -3305620.3      27.711207      537.30131     -1292.6354    
     74200  -3305592.6     -3305620.9      28.284039      548.40814     -1001.305     
     74300  -3305592.8     -3305621.3      28.498147      552.55956     -2387.9991    
     74400  -3305593       -3305620.6      27.667007      536.44431     -3348.5347    
     74500  -3305593.3     -3305620.7      27.487826      532.97011     -2154.517     
     74600  -3305593.6     -3305622.1      28.497565      552.54826     -4182.9886    
     74700  -3305593.9     -3305621.7      27.761833      538.28293     -1487.6121    
     74800  -3305594.3     -3305620.9      26.539979      514.59202     -155.84796    
     74900  -3305594.7     -3305621.5      26.714216      517.97034     -1564.385     
     75000  -3305595.1     -3305623.5      28.342163      549.53513     -3947.649     
     75100  -3305595.6     -3305622.1      26.560013      514.98046     -939.55155    
     75200  -3305596       -3305623.4      27.439488      532.03287     -3924.3781    
     75300  -3305596.3     -3305621.2      24.910438      482.99634     -2826.2258    
     75400  -3305596.6     -3305622.9      26.300637      509.95134     -4955.6895    
     75500  -3305596.8     -3305623.1      26.326287      510.44867     -3550.3033    
     75600  -3305597       -3305622.4      25.448039      493.42005     -3002.7506    
     75700  -3305597       -3305622.7      25.714765      498.59167     -3332.1598    
     75800  -3305597.1     -3305623.5      26.421467      512.29415     -1964.1575    
     75900  -3305597.1     -3305623.7      26.626917      516.27768     -3168.1291    
     76000  -3305597       -3305623.6      26.567462      515.12489     -5501.0523    
     76100  -3305596.9     -3305622.9      25.982991      503.7924      -1611.1078    
     76200  -3305596.8     -3305622.5      25.692968      498.16906     -2969.2599    
     76300  -3305596.7     -3305623.9      27.207757      527.53977     -435.199      
     76400  -3305596.5     -3305621.9      25.343429      491.39172     -3450.7027    
     76500  -3305596.4     -3305623.2      26.861878      520.83342     -2077.1596    
     76600  -3305596.2     -3305623.3      27.1002        525.45431     -1352.474     
     76700  -3305596.1     -3305623.1      27.008827      523.68266     -1915.0816    
     76800  -3305596       -3305623.9      27.966861      542.25827     -2493.0664    
     76900  -3305595.9     -3305623.1      27.234642      528.06106     -1753.882     
     77000  -3305595.8     -3305622.7      26.87749       521.13612     -225.74302    
     77100  -3305595.8     -3305623.8      28.006768      543.03205     -2821.0429    
     77200  -3305595.8     -3305624.9      29.052539      563.30884     -1591.3803    
     77300  -3305595.9     -3305624.2      28.319491      549.09554     -719.81767    
     77400  -3305595.9     -3305622.5      26.570856      515.1907      -3040.7051    
     77500  -3305596       -3305623.6      27.65749       536.25979      1371.5137    
     77600  -3305596       -3305622.6      26.56332       515.04458      1354.7146    
     77700  -3305596.1     -3305622.4      26.31449       510.21994     -3593.1191    
     77800  -3305596.1     -3305622.4      26.308196      510.0979      -1253.9924    
     77900  -3305596.2     -3305623.7      27.57317       534.62488     -1546.5332    
     78000  -3305596.2     -3305622.1      25.814058      500.51691     -2422.3363    
     78100  -3305596.3     -3305623.1      26.804066      519.71248     -4529.4254    
     78200  -3305596.3     -3305621.9      25.607228      496.50661     -584.34268    
     78300  -3305596.4     -3305623.6      27.197024      527.33167     -3501.9496    
     78400  -3305596.4     -3305624.4      27.965728      542.2363      -2510.5969    
     78500  -3305596.5     -3305623        26.562814      515.03477     -1205.8489    
     78600  -3305596.6     -3305623.5      26.958148      522.70002     -2873.2184    
     78700  -3305596.7     -3305624.3      27.626051      535.65019     -2335.2866    
     78800  -3305596.9     -3305621.5      24.647204      477.8924      -1635.5317    
     78900  -3305597       -3305623.5      26.51527       514.11292     -3082.832     
     79000  -3305597.2     -3305621.9      24.627842      477.51698     -1678.6092    
     79100  -3305597.4     -3305622.5      25.110587      486.87708     -1551.5458    
     79200  -3305597.7     -3305622.6      24.988487      484.50965     -3446.3171    
     79300  -3305597.9     -3305623        25.134873      487.34798     -1842.3972    
     79400  -3305598.2     -3305624        25.838632      500.99337     -3797.8229    
     79500  -3305598.4     -3305624.4      25.911146      502.39937     -1556.0675    
     79600  -3305598.7     -3305623.4      24.69381       478.79605      89.570336    
     79700  -3305598.9     -3305624        25.058668      485.87041     -764.45719    
     79800  -3305599.1     -3305624.2      25.076157      486.2095      -2389.7446    
     79900  -3305599.3     -3305625.6      26.291256      509.76944     -2984.3649    
     80000  -3305599.3     -3305624.6      25.266058      489.89155     -3498.9526    
     80100  -3305599.2     -3305622.8      23.609345      457.76903     -3931.8071    
     80200  -3305599       -3305624.4      25.398077      492.45131     -5457.0742    
     80300  -3305598.6     -3305624.3      25.713626      498.56959     -2124.8836    
     80400  -3305598.2     -3305624.7      26.515962      514.12634     -2059.7118    
     80500  -3305597.7     -3305623.2      25.516191      494.74146     -2943.4221    
     80600  -3305597.1     -3305623.3      26.209059      508.1757      -1214.9342    
     80700  -3305596.6     -3305623.3      26.7094        517.87696     -2246.0903    
     80800  -3305596.1     -3305622.5      26.327611      510.47435     -2950.0811    
     80900  -3305595.8     -3305623.9      28.089026      544.62696     -3184.6822    
     81000  -3305595.6     -3305623.2      27.595735      535.0624      -940.98301    
     81100  -3305595.5     -3305621.8      26.368415      511.26549     -3684.2248    
     81200  -3305595.4     -3305621.8      26.321492      510.3557      -2416.7296    
     81300  -3305595.5     -3305622.5      27.015301      523.80818     -2811.8334    
     81400  -3305595.5     -3305622.3      26.769484      519.04196     -1288.7729    
     81500  -3305595.7     -3305623.4      27.733497      537.73351     -2182.2071    
     81600  -3305595.9     -3305623.2      27.334453      529.99633     -3643.0273    
     81700  -3305596.1     -3305622.4      26.332552      510.57014     -1925.2983    
     81800  -3305596.4     -3305623.6      27.264144      528.63307     -3873.2517    
     81900  -3305596.7     -3305623.8      27.138249      526.19205     -3044.0691    
     82000  -3305597       -3305623        25.927515      502.71675     -107.37208    
     82100  -3305597.4     -3305623.2      25.788605      500.02338     -89.659191    
     82200  -3305597.8     -3305623.9      26.143622      506.90693     -2051.9181    
     82300  -3305598.1     -3305624.6      26.53464       514.48848     -1993.1375    
     82400  -3305598.4     -3305623.6      25.252343      489.62564     -5338.2983    
     82500  -3305598.5     -3305624        25.47227       493.88986     -529.11756    
     82600  -3305598.6     -3305625.7      27.073983      524.94599     -2066.7167    
     82700  -3305598.7     -3305625.1      26.429639      512.45259     -2979.6684    
     82800  -3305598.7     -3305623.1      24.395182      473.00588     -1119.7549    
     82900  -3305598.7     -3305625.1      26.424174      512.34664     -2259.1531    
     83000  -3305598.7     -3305623.7      25.039935      485.50718     -2001.4816    
     83100  -3305598.6     -3305624.8      26.210119      508.19625     -3560.4945    
     83200  -3305598.6     -3305624.5      25.868035      501.56349     -1951.0657    
     83300  -3305598.6     -3305624.1      25.549576      495.38878     -3149.6564    
     83400  -3305598.5     -3305624.7      26.133951      506.71942     -2747.8606    
     83500  -3305598.5     -3305623.3      24.860936      482.03653     -2555.4374    
     83600  -3305598.4     -3305624.5      26.077085      505.61682      59.541487    
     83700  -3305598.3     -3305624.5      26.121592      506.47977     -79.150694    
     83800  -3305598.3     -3305624.6      26.283821      509.62529     -963.04373    
     83900  -3305598.2     -3305623.3      25.049533      485.69329     -1458.0266    
     84000  -3305598.2     -3305624.4      26.276033      509.47428     -2574.0041    
     84100  -3305598.1     -3305625.5      27.459594      532.42271     -3240.4177    
     84200  -3305598       -3305623.1      25.095424      486.58309     -1791.8835    
     84300  -3305597.9     -3305623.2      25.257087      489.71762     -1687.8817    
     84400  -3305598       -3305625.1      27.163959      526.69057     -4360.1074    
     84500  -3305598       -3305624.4      26.368364      511.26451     -2177.5342    
     84600  -3305598.2     -3305625.2      27.065494      524.78138     -880.9808     
     84700  -3305598.4     -3305623.7      25.370799      491.92242     -5627.3197    
     84800  -3305598.6     -3305624.9      26.23914       508.75896     -3414.0298    
     84900  -3305598.9     -3305622.2      23.283231      451.4459      -3034.7023    
     85000  -3305599.2     -3305624.5      25.311877      490.77996     -3043.7828    
     85100  -3305599.5     -3305624.7      25.159019      487.81615     -5733.4652    
     85200  -3305599.9     -3305624.8      24.877405      482.35584     -849.30649    
     85300  -3305600.2     -3305625        24.821798      481.27765     -1873.6677    
     85400  -3305600.4     -3305625        24.548342      475.97553     -5767.619     
     85500  -3305600.6     -3305625.8      25.22166       489.03072     -1753.5682    
     85600  -3305600.7     -3305624.9      24.235609      469.91186     -3705.5745    
     85700  -3305600.6     -3305625.1      24.451131      474.09068     -2159.9726    
     85800  -3305600.5     -3305625.6      25.078346      486.25195     -1089.393     
     85900  -3305600.2     -3305625        24.735076      479.59618      110.65278    
     86000  -3305599.9     -3305625.6      25.67776       497.87417     -2094.4914    
     86100  -3305599.5     -3305624.7      25.192066      488.4569      -1919.9793    
     86200  -3305599.1     -3305624.3      25.19104       488.437       -1835.4393    
     86300  -3305598.5     -3305624.2      25.671241      497.74778     -4073.3265    
     86400  -3305598.1     -3305626.6      28.517923      552.94298     -2945.5422    
     86500  -3305597.6     -3305624.6      26.984831      523.21739     -4325.8698    
     86600  -3305597.3     -3305623.9      26.562357      515.0259       392.51032    
[...]
    228700  -3305627.1     -3305641.8      14.741464      285.82689     -1372.8382    
    228800  -3305626.9     -3305641.3      14.331337      277.87481      1178.1304    
    228900  -3305626.7     -3305641.3      14.575834      282.61543     -565.15374    
    229000  -3305626.5     -3305640.6      14.129692      273.96506      419.2078     
    229100  -3305626.3     -3305641.1      14.881165      288.53559      468.72952    
    229200  -3305626.1     -3305640.8      14.728007      285.56596      488.4653     
    229300  -3305625.8     -3305640.8      14.985799      290.56438      2089.002     
    229400  -3305625.7     -3305641.2      15.486062      300.26414     -634.01732    
    229500  -3305625.5     -3305640.5      14.937567      289.62919     -228.81774    
    229600  -3305625.4     -3305641.3      15.863753      307.5873       134.83084    
    229700  -3305625.3     -3305640.1      14.731495      285.63359      421.00968    
    229800  -3305625.3     -3305640.8      15.460784      299.77401     -1039.9099    
    229900  -3305625.3     -3305640.6      15.362131      297.8612      -1909.2759    
    230000  -3305625.1     -3305641.6      16.486454      319.66104     -39.838857    
    230100  -3305625.1     -3305640.9      15.844829      307.22038     -1097.6816    
    230200  -3305625       -3305641.1      16.042141      311.04612      1359.1764    
    230300  -3305625       -3305640.5      15.493782      300.41382      335.16887    
    230400  -3305624.9     -3305640.1      15.168045      294.09799     -717.5107     
    230500  -3305624.9     -3305640.9      15.933394      308.9376       2264.6605    
    230600  -3305624.9     -3305639.9      14.996826      290.77819     -3163.9428    
    230700  -3305624.9     -3305640.3      15.430828      299.19318      89.238728    
    230800  -3305624.9     -3305640.1      15.24084       295.50944     -2003.1907    
    230900  -3305624.8     -3305640.4      15.546463      301.43526      1361.2639    
    231000  -3305624.8     -3305639.8      15.012044      291.07325      1078.6358    
    231100  -3305624.8     -3305640.2      15.371051      298.03416      147.86229    
    231200  -3305624.8     -3305641.2      16.424886      318.46729      395.51185    
    231300  -3305624.8     -3305640.4      15.643379      303.31439     -3591.1843    
    231400  -3305624.8     -3305641.2      16.43349       318.63411      934.58547    
    231500  -3305624.8     -3305640.4      15.593086      302.33926     -987.24829    
    231600  -3305624.9     -3305641.2      16.226156      314.61405      38.412632    
    231700  -3305625.1     -3305640.5      15.376849      298.14657     -468.51196    
    231800  -3305625.2     -3305641.2      15.944322      309.14949      2618.4171    
    231900  -3305625.5     -3305640.4      14.925806      289.40115     -508.93119    
    232000  -3305625.6     -3305641.5      15.905109      308.38917      1276.2552    
    232100  -3305625.8     -3305640.9      15.048949      291.78881      901.17127    
    232200  -3305626       -3305641.2      15.166146      294.06118      2768.3075    
    232300  -3305626.2     -3305640.5      14.333373      277.91427     -1364.8677    
    232400  -3305626.3     -3305641.7      15.381261      298.23211      173.61846    
    232500  -3305626.4     -3305641.2      14.760147      286.18914      829.79026    
    232600  -3305626.5     -3305641        14.482711      280.80984     -760.47295    
    232700  -3305626.5     -3305641.6      15.115394      293.07713      1664.0064    
    232800  -3305626.5     -3305641.3      14.781316      286.5996      -1087.5798    
    232900  -3305626.4     -3305641.1      14.614976      283.37437      686.17359    
    233000  -3305626.3     -3305640.6      14.288201      277.03844     -369.92627    
    233100  -3305626.1     -3305641.7      15.576468      302.01705      830.30848    
    233200  -3305625.8     -3305641.1      15.309812      296.84677     -431.94239    
    233300  -3305625.5     -3305640        14.488554      280.92313      1979.539     
    233400  -3305625.1     -3305640.3      15.159491      293.93216     -535.32592    
    233500  -3305624.8     -3305640.9      16.020751      310.63139      2070.7105    
    233600  -3305624.5     -3305640.4      15.935397      308.97644     -4670.3841    
    233700  -3305624.3     -3305640.4      16.074482      311.67319      944.17974    
    233800  -3305624.2     -3305640.4      16.160926      313.34929      80.356507    
    233900  -3305624.2     -3305640.3      16.099978      312.16754     -394.70176    
    234000  -3305624.2     -3305640        15.874639      307.79837     -629.51226    
    234100  -3305624.2     -3305640.2      16.013466      310.49014     -852.68882    
    234200  -3305624.3     -3305639.9      15.620009      302.86128      855.38699    
    234300  -3305624.4     -3305640.1      15.754503      305.46903     -1010.6154    
    234400  -3305624.5     -3305640.7      16.226685      314.6243      -580.48367    
    234500  -3305624.6     -3305641        16.372616      317.45381      1914.2736    
    234600  -3305624.8     -3305641        16.202569      314.15672     -38.737772    
    234700  -3305624.9     -3305640.1      15.105493      292.88516     -3182.1225    
    234800  -3305625.1     -3305640        14.8853        288.61577      870.04121    
    234900  -3305625.3     -3305641        15.670025      303.83106      1859.7996    
    235000  -3305625.5     -3305640.8      15.336547      297.36514     -4813.3398    
    235100  -3305625.7     -3305640.8      15.073702      292.26875      2944.5467    
    235200  -3305625.9     -3305641.3      15.464223      299.84069      1774.2509    
    235300  -3305626.1     -3305641.1      15.038995      291.59582     -642.94468    
    235400  -3305626.2     -3305641        14.843329      287.80198     -929.44008    
    235500  -3305626.3     -3305640.9      14.546495      282.04658      980.49975    
    235600  -3305626.4     -3305640.8      14.369861      278.62176      1235.4911    
    235700  -3305626.6     -3305641.3      14.74825       285.95847     -0.73495204   
    235800  -3305626.7     -3305641.8      15.06102       292.02287     -1076.3499    
    235900  -3305626.9     -3305642.2      15.311835      296.886        1063.9146    
    236000  -3305627.1     -3305641.1      14.050658      272.43263      1167.9959    
    236100  -3305627.3     -3305642.7      15.441486      299.39983     -562.63414    
    236200  -3305627.5     -3305642.1      14.581099      282.71753      162.97339    
    236300  -3305627.6     -3305641.9      14.307085      277.40458      887.42325    
    236400  -3305627.5     -3305642.2      14.619534      283.46275     -1795.4579    
    236500  -3305627.5     -3305641.7      14.235136      276.00954      770.37481    
    236600  -3305627.4     -3305642.2      14.827756      287.50002      214.85123    
    236700  -3305627.1     -3305642.5      15.449009      299.5457      -2070.7164    
    236800  -3305626.8     -3305641.7      14.895242      288.80854      433.15845    
    236900  -3305626.4     -3305640.6      14.146406      274.28912     -294.99651    
    237000  -3305626.1     -3305641.7      15.56585       301.81116     -1147.4658    
    237100  -3305625.8     -3305641.2      15.388104      298.36479      1013.1958    
    237200  -3305625.6     -3305642.2      16.644862      322.73246      893.47064    
    237300  -3305625.4     -3305640.8      15.340071      297.43347     -4280.743     
    237400  -3305625.3     -3305641.5      16.185536      313.82645      4435.7531    
    237500  -3305625.2     -3305640.9      15.675656      303.94023     -1693.7449    
    237600  -3305625       -3305640.8      15.742756      305.24126     -1875.9271    
    237700  -3305624.9     -3305640.4      15.476291      300.07467      1001.6955    
    237800  -3305624.9     -3305640.3      15.423597      299.05298     -2282.683     
    237900  -3305624.8     -3305640.1      15.299619      296.64913     -1101.9471    
    238000  -3305624.8     -3305641.4      16.593768      321.74179     -756.70636    
    238100  -3305624.8     -3305640.5      15.737503      305.13941      350.66399    
    238200  -3305624.8     -3305640.4      15.662868      303.69229     -2879.0424    
    238300  -3305624.8     -3305641.7      16.900651      327.69204      2603.509     
    238400  -3305624.8     -3305640        15.140924      293.57214     -1034.4036    
    238500  -3305624.9     -3305640.6      15.66312       303.69716     -764.29428    
    238600  -3305625.1     -3305640.9      15.801092      306.37236      2644.2359    
    238700  -3305625.3     -3305640.5      15.216621      295.03986      219.59464    
    238800  -3305625.5     -3305641.2      15.667663      303.78525     -2033.043     
    238900  -3305625.9     -3305641.4      15.549454      301.49327      908.62779    
    239000  -3305626.2     -3305641.6      15.46727       299.89977     -862.47441    
    239100  -3305626.5     -3305641.2      14.725192      285.51139      333.50838    
    239200  -3305626.7     -3305641.3      14.56146       282.33674      1899.1632    
    239300  -3305626.9     -3305642.5      15.637896      303.20809      488.3103     
    239400  -3305627       -3305641.8      14.811796      287.19059      803.61249    
    239500  -3305627       -3305642.1      15.116871      293.10577     -272.16228    
    239600  -3305627       -3305642.2      15.225948      295.22071      90.538657    
    239700  -3305626.9     -3305641        14.14152       274.19438      481.74656    
    239800  -3305626.8     -3305641.8      14.998061      290.80214      763.13559    
    239900  -3305626.6     -3305640.9      14.397405      279.15582      397.2093     
    240000  -3305626.3     -3305641.1      14.781786      286.6087      -303.56079    
    240100  -3305626       -3305641.6      15.664078      303.71574     -1692.5568    
    240200  -3305625.7     -3305641.3      15.581355      302.11179      967.7012     
    240300  -3305625.5     -3305640.7      15.240096      295.49503     -1681.299     
    240400  -3305625.3     -3305641.1      15.740575      305.19896      844.81135    
    240500  -3305625.2     -3305641.5      16.211952      314.33864     -772.21429    
    240600  -3305625.2     -3305641        15.767342      305.71797      469.5027     
    240700  -3305625.1     -3305639.9      14.792774      286.82175      98.836999    
    240800  -3305625.1     -3305641        15.910854      308.50055      620.84861    
    240900  -3305625.1     -3305640.7      15.608586      302.63979      3033.5353    
    241000  -3305625.1     -3305640        14.882681      288.56498      939.7609     
    241100  -3305625.1     -3305640.6      15.494901      300.43551     -747.66497    
    241200  -3305625       -3305640.6      15.546898      301.44369      1164.2008    
    241300  -3305625.1     -3305640.6      15.539377      301.29788     -1819.1026    
    241400  -3305625.1     -3305640.9      15.760707      305.5893      -1361.4633    
    241500  -3305625.1     -3305640.7      15.512462      300.77602      448.04374    
    241600  -3305625.2     -3305640.2      15.017188      291.17299     -2404.6708    
    241700  -3305625.3     -3305640.7      15.475631      300.06189      317.37541    
    241800  -3305625.4     -3305640.9      15.534967      301.21237     -1182.7825    
    241900  -3305625.5     -3305641.1      15.603598      302.54307      1569.3856    
    242000  -3305625.8     -3305640.9      15.059176      291.9871      -1962.8877    
    242100  -3305626       -3305640.4      14.404732      279.29788     -1538.1747    
    242200  -3305626.2     -3305641.5      15.303868      296.73152      213.22458    
    242300  -3305626.4     -3305641.3      14.814163      287.23648      164.29645    
    242400  -3305626.7     -3305641        14.326833      277.78748      2043.7183    
    242500  -3305626.9     -3305640.9      13.996703      271.38648     -2699.8634    
    242600  -3305627       -3305641.8      14.877441      288.46339      46.889932    
    242700  -3305627       -3305642.5      15.440037      299.37174      749.03459    
    242800  -3305627.1     -3305642.3      15.245056      295.5912      -635.12037    
    242900  -3305627       -3305641.4      14.405612      279.31495      360.03093    
    243000  -3305627       -3305641.9      14.941734      289.70999      1170.9851    
    243100  -3305626.6     -3305641.9      15.277178      296.21402      2198.0278    
    243200  -3305626.2     -3305641.2      14.946448      289.80139     -1558.6248    
    243300  -3305625.8     -3305640.6      14.771867      286.41639     -1168.0988    
    243400  -3305625.3     -3305640.6      15.293793      296.53617      827.62927    
    243500  -3305625       -3305640.2      15.186594      294.45766      909.11784    
    243600  -3305624.8     -3305641.2      16.45579       319.06649     -1232.4126    
    243700  -3305624.6     -3305640.8      16.17613       313.64408      1489.7653    
    243800  -3305624.6     -3305640.5      15.897903      308.24945     -740.86509    
    243900  -3305624.5     -3305640.2      15.69774       304.36842      1022.7816    
    244000  -3305624.5     -3305640.4      15.814106      306.62468      1339.813     
    244100  -3305624.5     -3305639.9      15.360434      297.82829     -1685.3502    
    244200  -3305624.6     -3305641.3      16.76088       324.98197     -786.12464    
    244300  -3305624.6     -3305640.3      15.66223       303.6799       961.78141    
    244400  -3305624.7     -3305640.4      15.711823      304.64149      824.20067    
    244500  -3305624.9     -3305641.1      16.212432      314.34795     -1141.2323    
    244600  -3305625       -3305640.2      15.218516      295.0766      -879.45724    
    244700  -3305625.2     -3305640.7      15.504264      300.61707      2679.5004    
    244800  -3305625.4     -3305641.1      15.755316      305.48478      908.94314    
    244900  -3305625.6     -3305640.6      15.038622      291.58858     -676.66455    
    245000  -3305625.8     -3305640.7      14.861645      288.15711     -419.61225    
    245100  -3305626       -3305641.5      15.492929      300.39728      740.09575    
    245200  -3305626.2     -3305641.3      15.088166      292.5492       206.93051    
    245300  -3305626.3     -3305641.3      14.973827      290.33224     -331.62272    
    245400  -3305626.5     -3305641.6      15.143491      293.62192     -696.17983    
    245500  -3305626.6     -3305641.5      14.95186       289.90632     -522.85605    
    245600  -3305626.7     -3305642.1      15.415121      298.88865     -404.9105     
    245700  -3305626.7     -3305641.7      14.972193      290.30057     -269.89555    
    245800  -3305626.8     -3305641.8      15.053102      291.86933     -32.432242    
    245900  -3305626.8     -3305642.3      15.427958      299.13754      124.53109    
    246000  -3305626.7     -3305642.9      16.14736       313.08625      500.17213    
    246100  -3305626.6     -3305641.8      15.209789      294.9074      -560.18199    
    246200  -3305626.4     -3305641.3      14.812806      287.21017      211.35392    
    246300  -3305626.2     -3305641        14.838469      287.70774     -522.52654    
    246400  -3305625.8     -3305642        16.204282      314.18992     -1688.7417    
    246500  -3305625.5     -3305640.6      15.073101      292.2571       2360.1874    
    246600  -3305625.2     -3305640.1      14.920875      289.30554      3.3724491    
    246700  -3305624.9     -3305640.8      15.904053      308.36869      110.69845    
    246800  -3305624.7     -3305640.7      15.957066      309.39657      778.0052     
    246900  -3305624.6     -3305639.9      15.358695      297.79457      1205.072     
    247000  -3305624.5     -3305641        16.564411      321.17258      1379.1357    
    247100  -3305624.4     -3305640.4      16.010968      310.44171      2490.078     
    247200  -3305624.3     -3305640.2      15.919208      308.66254     -840.91427    
    247300  -3305624.3     -3305640.9      16.584901      321.56986      847.48905    
    247400  -3305624.4     -3305640.6      16.214818      314.39421      1045.5074    
    247500  -3305624.4     -3305640.7      16.304686      316.1367      -966.64225    
    247600  -3305624.5     -3305640.8      16.25243       315.12349      131.26091    
    247700  -3305624.7     -3305640.8      16.006127      310.34784     -615.58219    
    247800  -3305625       -3305640.7      15.741961      305.22585     -1302.5455    
    247900  -3305625.3     -3305640.8      15.591095      302.30065      1208.3735    
    248000  -3305625.5     -3305640.7      15.21919       295.08968     -747.29776    
    248100  -3305625.8     -3305640.6      14.842853      287.79276      499.72617    
    248200  -3305626       -3305641.6      15.59164       302.31121      745.04894    
    248300  -3305626.2     -3305641.1      14.86415       288.20569     -385.27805    
    248400  -3305626.3     -3305640.8      14.537122      281.86485      2081.8623    
    248500  -3305626.4     -3305641.2      14.797569      286.91472      929.55449    
    248600  -3305626.4     -3305641.8      15.328809      297.21511     -3289.1263    
    248700  -3305626.4     -3305641.2      14.759721      286.18089      3814.7987    
    248800  -3305626.4     -3305641.7      15.283521      296.337        1362.9571    
    248900  -3305626.3     -3305641.8      15.480643      300.15907     -2104.0439    
    249000  -3305626.2     -3305641.8      15.61196       302.70521      920.44098    
    249100  -3305626.1     -3305641.7      15.638909      303.22774      197.61508    
    249200  -3305625.9     -3305641.2      15.263563      295.95002     -2183.6817    
    249300  -3305625.8     -3305641.7      15.884263      307.98497      957.98533    
    249400  -3305625.6     -3305641        15.383562      298.27672      1459.1729    
    249500  -3305625.6     -3305641.8      16.286463      315.78336     -1807.664     
    249600  -3305625.6     -3305641.3      15.710003      304.60619      44.685394    
    249700  -3305625.5     -3305642        16.480248      319.54072      45.390162    
    249800  -3305625.5     -3305641.4      15.943551      309.13454      404.65256    
    249900  -3305625.5     -3305640.6      15.141487      293.58305     -881.75786    
    250000  -3305625.5     -3305640.3      14.835102      287.64246     -1469.028     
Loop time of 8115.74 on 72 procs for 50000 steps with 400 atoms

Performance: 1.065 ns/day, 22.544 hours/ns, 6.161 timesteps/s, 2.464 katom-step/s
93.0% CPU use with 72 MPI tasks x 1 OpenMP threads

MPI task timing breakdown:
Section |  min time  |  avg time  |  max time  |%varavg| %total
---------------------------------------------------------------
Pair    | 2091.3     | 6091.4     | 7852.5     |1329.9 | 75.06
Bond    | 0.020554   | 0.042126   | 0.070867   |   5.5 |  0.00
Neigh   | 0.036682   | 0.072981   | 0.097316   |   4.1 |  0.00
Comm    | 251.65     | 2013       | 6012.7     |2313.5 | 24.80
Output  | 1.8903     | 1.8954     | 2.1922     |   2.6 |  0.02
Modify  | 7.8743     | 8.3208     | 8.6865     |   6.2 |  0.10
Other   |            | 1.029      |            |       |  0.01

Nlocal:        5.55556 ave           9 max           2 min
Histogram: 2 6 8 0 16 20 0 15 4 1
Nghost:        389.986 ave         399 max         381 min
Histogram: 2 8 6 8 6 19 8 5 8 2
Neighs:              0 ave           0 max           0 min
Histogram: 72 0 0 0 0 0 0 0 0 0
FullNghs:      480.972 ave         799 max         164 min
Histogram: 3 5 7 6 12 18 6 10 4 1

Total # of neighbors = 34630
Ave neighs/atom = 86.575
Ave special neighs/atom = 0
Neighbor list builds = 1582
Dangerous builds = 0
unfix npt_equ


write_restart restart.equil
System init for write_restart ...
quit
