4/geom.data (written by ASE) 

416 	 atoms 
3  atom types
0.0      21.939529643938638  xlo xhi
0.0       21.93954771085312  ylo yhi
0.0      21.939657110583799  zlo zhi


Masses 

1            6.94000000    # Li_atom 
2           30.97376199    # P_atom 
3           32.06499999    # S_atom 

Atoms 

     1   0   2   0.0      12.482990264026222      9.2407686706502865      12.124222487307661
     2   0   3   0.0      13.337380775620828      9.2982998570001829      10.246599780413433
     3   0   3   0.0      13.494042384908157      7.4972660292837991       13.12644651583661
     4   0   3   0.0      13.109646170928672      11.023667564782473      12.766998074094397
     5   0   3   0.0      10.490209192274257      8.8406253071120702      12.522731537929857
     6   0   2   0.0      1.2848881888770232      14.711752207117875      11.158721364621355
     7   0   3   0.0      1.0309809226706927      15.718469252388655      9.3282106560977436
     8   0   3   0.0      2.9710157569576889       15.26680145209507      12.256417692046016
     9   0   3   0.0   -0.064804653441536131      15.425800620647784      12.595025674972241
    10   0   3   0.0     0.86707573623476597      12.720177415947706      11.048160216408185
    11   0   2   0.0      11.558866895634543      17.905840271898743      20.904606226806063
    12   0   3   0.0      11.006748884861457      20.197223583060712      20.213731096942634
    13   0   3   0.0      9.8956438615465352      16.969188269173983      20.522582006740446
    14   0   3   0.0      13.470851913829723      17.466853629421003      20.857929282884101
    15   0   3   0.0      11.974821218102429      19.669807078679412      22.076895552554355
    16   0   2   0.0       13.09556169292742      6.4638973519127987      1.2816501033616374
    17   0   3   0.0      11.257050432043727      5.5500449416818523      1.0946463300114797
    18   0   3   0.0      14.081212691594606      6.4617424727440538      21.306588884578268
    19   0   3   0.0      13.012925671222428      8.5538715760902448      1.6019229079637454
    20   0   3   0.0       14.64050595637084      5.4684457885662283       2.262973249893292
    21   0   2   0.0      2.1294726082783226      11.381647551609078      21.593053861870541
    22   0   3   0.0      2.1500162221602048      13.131436830870138      20.417629754101064
    23   0   3   0.0      2.1048602993598058      9.8668183042247506      20.203349116450806
    24   0   3   0.0      4.2179292046933829      11.438222047926645    0.085487097575544554
    25   0   3   0.0     0.06140515497112687      11.889386183153018      21.940416397226134
    26   0   2   0.0      14.689122736318241       19.97334100090622       9.143782685133564
    27   0   3   0.0      13.927767255231153      21.827781093037459      8.4941874436480731
    28   0   3   0.0      14.927856123665356      19.130318757144071      7.3233629935454374
    29   0   3   0.0      16.169966188073445      20.068204245402782      10.561535189809867
    30   0   3   0.0       13.06790440067561      18.847620157520591       9.774478139386753
    31   0   2   0.0      1.8081634059117009      4.9418594944857386      12.978965176387934
    32   0   3   0.0     0.79319968177875411      5.9653220165148708      14.440870175585598
    33   0   3   0.0      2.7073423955405342      6.1677134290936388       11.58677780804838
    34   0   3   0.0       3.371742071443097      3.8029780854552349      14.081557036475264
    35   0   3   0.0     0.67600470284410241      3.6100322844134625       11.93105450771851
    36   0   2   0.0      7.1321092617886874      3.6976303938431561      19.106217639063299
    37   0   3   0.0      9.2142645874091613       2.927470151526725      19.408920135338544
    38   0   3   0.0      5.7345289426599582      2.4710371740416153      18.336858001458232
    39   0   3   0.0      6.8705304161396237      4.0683695455341038      21.051178927566745
    40   0   3   0.0      6.9244210047270514      5.4734031258229017      17.859607054841394
    41   0   2   0.0      20.147764786365656      8.3687022625339544      6.9674923011637437
    42   0   3   0.0      19.768415551809241      10.039236261241657      8.1507239571114845
    43   0   3   0.0      19.769582415967403      9.3158123326441231      5.0624018609651138
    44   0   3   0.0      21.877162132751899       7.443704645930576      7.6613821802660969
    45   0   3   0.0      18.636846626074608      6.9241664272961696      6.8861111920610796
    46   0   2   0.0      6.9045142118062133      19.052620627106922      14.295412917379073
    47   0   3   0.0      6.1874618766370046      17.245210650451906       15.08656596586939
    48   0   3   0.0      5.6075393952279908       20.54893742611463      14.948324969735365
    49   0   3   0.0      8.8117905367679565      19.419002771553231      14.984967506419276
    50   0   3   0.0      7.1901677984337402      19.168921925037264      12.286471532289202
    51   0   2   0.0      7.8393136500721958      20.039112029654042      6.3944631375547907
    52   0   3   0.0      6.9782087268702524      20.808430921399491      8.0577389349926722
    53   0   3   0.0      9.1991034063842747      21.230533875917867      5.4418206677072831
    54   0   3   0.0      8.7523232453526862      18.473831192255535      7.4282216753408106
    55   0   3   0.0      6.3941332581384343       19.50281653488069      5.0275341704833263
    56   0   2   0.0      17.564435486417299      15.563933190355074      16.758512456079565
    57   0   3   0.0      19.369817616869117      16.339427617344406      17.308884892899194
    58   0   3   0.0      18.009867270389613      13.811474774941354      15.737088723938486
    59   0   3   0.0      16.588965974050208       15.14979911356331      18.559466821734532
    60   0   3   0.0      16.638143243290909      16.911961102758877      15.470594622236426
    61   0   2   0.0      14.463800455513246      0.7547916010137864      15.669647081131899
    62   0   3   0.0      15.551620305554255      2.1706031146806524      16.796427257002922
    63   0   3   0.0      14.871176874587388      0.1016038840065832      13.726193752217466
    64   0   3   0.0       14.57827844434701      21.825657454322243      17.511430662105319
    65   0   3   0.0      12.552192404094182      1.1691500119338627      15.267250533358824
    66   0   2   0.0      12.835589232557743      13.968214930136732      5.9948477925150181
    67   0   3   0.0       12.91895187606915      13.024051750486164      7.8448332663735076
    68   0   3   0.0      11.848950806474347      15.647960852196229      6.4295651143937933
    69   0   3   0.0      14.575656839038544      14.497042447512943      5.0451891403051343
    70   0   3   0.0      11.849136158175023      12.581495017238925      4.6699675510375229
    71   0   2   0.0      7.6026677016524369      8.2249152639062117      4.5157735566068311
    72   0   3   0.0      6.7360564429363459      9.4235007196377456      5.8690047373257457
    73   0   3   0.0      8.7560064393497452      6.6338913567182614      5.1416412167529719
    74   0   3   0.0      6.3434898415251766       7.087002662443127       3.410476419726665
    75   0   3   0.0      8.7678125545517585      9.3089006362297546      3.1278714308653939
    76   0   2   0.0      19.754727055711136      9.0200852672037612      16.629847211071748
    77   0   3   0.0      21.415348246109513      9.7292171173192852      17.658074297795171
    78   0   3   0.0      18.050836876215389      9.2333471823417401      17.811153806955208
    79   0   3   0.0      19.330852588033746      10.282098382361946      15.121487049143475
    80   0   3   0.0      20.277494176466174      7.1377320876830703      16.121840782079101
    81   0   2   0.0      6.2709005613050008      10.886475960914302      13.972075900546937
    82   0   3   0.0      5.7814043885481929      8.8753928355070109      13.996067123515843
    83   0   3   0.0      8.2385281613082277      10.892984158132892      13.525897669479804
    84   0   3   0.0      5.3297168989267254      11.952377028509767      12.484133462451553
    85   0   3   0.0        5.79362630196706      11.821321030783192       15.87322249591754
    86   0   2   0.0      9.2429715514304309      11.733726409333126      20.772870433002481
    87   0   3   0.0      9.9160717090178583      13.326318348812656      21.806451717056319
    88   0   3   0.0      8.0781087866894854      10.462356724247257      21.869368614936295
    89   0   3   0.0      7.7799224465980901      12.146894881778699       19.35299138918867
    90   0   3   0.0       10.74061975273753      10.287300162624183      20.443412511294991
    91   0   2   0.0      20.897546869041498      21.395084634290537      14.450570178663941
    92   0   3   0.0      21.858480720678205      21.872428817339944      16.246938679611592
    93   0   3   0.0      20.403869943066201      19.985981056656119      15.882479394852895
    94   0   3   0.0      19.315831631668772      21.907438779569294      13.389729025006277
    95   0   3   0.0      22.001176218410244      20.867497661867699      12.838203695733702
    96   0   2   0.0      8.0449919663621348      2.5649122213442648       11.46915338018224
    97   0   3   0.0      9.2964196213125554      1.4131321438243576      12.555652235148933
    98   0   3   0.0      8.9212379307454768      4.4457989237670121      11.530138386750677
    99   0   3   0.0      8.2199883929557807       2.084911617344372      9.4483706765324058
   100   0   3   0.0      6.1979675532366478      2.7408722438789122      12.313279930966564
   101   0   2   0.0      14.689756973239776     0.87714135955165462      3.0184782184358498
   102   0   3   0.0      16.523214925750263      1.8747302762569458      2.4576376376609654
   103   0   3   0.0      13.572754203223315       1.482752255801324      4.6090563861662135
   104   0   3   0.0      13.666639337162673     0.61672278492976274      1.3141482564842146
   105   0   3   0.0      16.076890074416049      21.356471655569628      3.6552927478843542
   106   0   2   0.0      19.806689974162918      17.976707981194046      5.6422449106677384
   107   0   3   0.0      19.161733002268722      16.020039440326702      6.0162321940593069
   108   0   3   0.0      21.775456729218693      18.351516960444052      6.5067511767555652
   109   0   3   0.0       19.75755749006175      18.703327256244815      3.7248210381298819
   110   0   3   0.0      18.696697868936521      19.248090032810619      6.7710256482506841
   111   0   2   0.0      4.3666085692496308      15.829586473311048      3.2017515807528159
   112   0   3   0.0       2.376046533311754      16.385254763478109      3.1529638127114743
   113   0   3   0.0      4.7304424925149471      14.365798174741032       4.535673148262565
   114   0   3   0.0      4.8441325095440391      15.444956867634268       1.201979513268276
   115   0   3   0.0      5.3401925066388065      17.565957290337128       3.630414687296541
   116   0   2   0.0      4.5963627957184654      19.732144008844937       19.96005175439587
   117   0   3   0.0      6.5137010158564683      18.882541905942571      19.501006842855578
   118   0   3   0.0       4.628137870422055      21.045574075791869      21.602634513418327
   119   0   3   0.0      3.8833195641182905       20.34628103211778      18.115916144320071
   120   0   3   0.0      3.2385407603332377      18.411942182425584      20.604341864343084
   121   0   2   0.0      5.1566864946993496      3.6527482358962695      6.5816060029298242
   122   0   3   0.0      5.7486016414841892      5.5299774099067811      6.0566197694889103
   123   0   3   0.0      5.7718990000875792      3.2605390455288759      8.4924965443269631
   124   0   3   0.0      3.1099397770138846      3.6915405950356952      6.5224637952995979
   125   0   3   0.0      6.0260570861581435      2.3426855819037793      5.1747163365963553
   126   0   2   0.0       18.01597504896144      9.7128300111511958        21.9025561971801
   127   0   3   0.0      17.749531699905699      8.0438354941778698      1.2345624900486698
   128   0   3   0.0      17.160205557276665      11.566739506874022      21.887258662383562
   129   0   3   0.0      20.093762318948901      9.9021910698765527    0.074174870692155809
   130   0   3   0.0      16.326779157589996      9.0354721928698254      20.681204066655205
   131   0   2   0.0      3.5694325942819773      20.465922300997963      10.248804016063549
   132   0   3   0.0      2.5789205367083405      20.371009222082041      12.027014280931411
   133   0   3   0.0      5.2534236926266518      21.567565617473068      10.433680523060204
   134   0   3   0.0      4.0508115861429737       18.50832141272917      9.6238704101091219
   135   0   3   0.0       2.416318140115806      21.485430757174104      8.8188307778852852
   136   0   2   0.0     0.39076835417726286      5.1818427416667951      1.2539460937923637
   137   0   3   0.0     0.17928925026158168      3.1808106063289605      1.0817434675700643
   138   0   3   0.0      21.523401183314519      6.3463135407273539      2.7635592388654797
   139   0   3   0.0      2.1984599998248617      6.1015170133050107      1.6240401131219873
   140   0   3   0.0    0.035651076657445241      6.0872967232050081      21.306456006207398
   141   0   2   0.0      16.356563923171571      14.749970821092916      10.036260452401939
   142   0   3   0.0       16.93557404161476      16.676825836062196      9.7663543782954712
   143   0   3   0.0      17.795837803466625      13.909114019536796      11.187026659549694
   144   0   3   0.0      14.512282799600401      14.599890374509503      11.013825863740124
   145   0   3   0.0      16.330599967090929      13.824437585344883      8.1720952781690137
   146   0   2   0.0      13.240501527757935      5.4696043022686158      8.1995467938323632
   147   0   3   0.0       13.20860166390294      3.7408420040959918      9.4768853119814533
   148   0   3   0.0       12.97324523974185      6.9885355313913804      9.5283432378997794
   149   0   3   0.0      14.836494592832397      6.0540627331761678      7.0329914969752299
   150   0   3   0.0      11.625415730887813      5.0962510741877605      6.9958828344643624
   151   0   2   0.0      1.9419261164293549      2.6451274469859141      18.204418397346334
   152   0   3   0.0      1.1082077419172851       1.949250747419407       19.94807729103735
   153   0   3   0.0      2.3972763040783387      4.6897550926871538      18.282780456372983
   154   0   3   0.0      3.4595050550115269      1.3441577905420659      17.891323314349254
   155   0   3   0.0     0.81261464518381055      2.1761319347250732      16.607328116027844
   156   0   2   0.0      18.211233084740446      9.5851483784238365      11.520881170668801
   157   0   3   0.0      19.236085376487416      8.4923026584030552      12.814866638394491
   158   0   3   0.0      16.262585992577986      10.009118612625709      11.972347112160174
   159   0   3   0.0      18.998051351465083      11.484086664593971      11.559494687905493
   160   0   3   0.0      17.921134866899454      8.4923740296707013       9.787621140703834
   161   0   2   0.0      18.598596416513146      4.3449290276577317      19.059561311267917
   162   0   3   0.0      17.271017446723555       4.133797180468604      20.662988934800552
   163   0   3   0.0        19.7571019721582      6.0088458157495923       19.29528833918361
   164   0   3   0.0      19.562149401294636      2.6013810271886886      18.976246076464555
   165   0   3   0.0      17.458863093466679       4.596349434329527      17.368049599908076
   166   0   2   0.0      7.5479619234251727      15.210802318376045      7.7762947275343706
   167   0   3   0.0      8.9276475567587354      15.754501274072867      9.1220997563970112
   168   0   3   0.0      6.4651476009310995      13.449335140418055      8.0866269758264941
   169   0   3   0.0      5.9760881678800741      16.478771163937104       8.234836780797675
   170   0   3   0.0      8.0928395230116621      15.043800804550049      5.8395120116032349
   171   0   2   0.0   -0.054262728072812697      2.6542253352837077      6.3486609255135313
   172   0   3   0.0    0.084205228831540344      2.1598969635825425      8.2478976935353714
   173   0   3   0.0      21.500976207029591      4.6235742145839973       6.094990559991488
   174   0   3   0.0        1.00812497179612      2.5853089761148955      4.5381560563226024
   175   0   3   0.0      21.827360808048184     0.59131149310332742      4.9382385966871665
   176   0   2   0.0      18.316401640568142      21.029170023264587      19.234003106469586
   177   0   3   0.0      19.002277595870968      21.880215576878747      21.023463423330568
   178   0   3   0.0      19.704719622348737      19.600018834577128      18.791497563331557
   179   0   3   0.0      16.335755819077388      20.418802565043812      19.560725681078019
   180   0   3   0.0       18.19274924746361      21.982884995475022      17.448795869782291
   181   0   2   0.0      15.270728460225724      14.165947581289839      1.5308837613360857
   182   0   3   0.0      16.460434443116753      15.517431939998509      2.6186994014549487
   183   0   3   0.0      14.803622063542416      12.204000096034546      2.0813768329717983
   184   0   3   0.0      13.651627569846253      15.068658841257742     0.76324883602798577
   185   0   3   0.0      16.514620398384768      13.994816326431383   -0.077048386716761355
   186   0   2   0.0      3.7640051962415768      11.467404424059005       8.124048780764781
   187   0   3   0.0      2.5834275930963111      12.855558636141625      8.9944256502155469
   188   0   3   0.0      5.3519314909426017       10.76457168468392      9.1342006053707063
   189   0   3   0.0      2.3680177617983409      9.9833661491571188      7.7735261413932237
   190   0   3   0.0      4.4098135548351598      12.518216364441304      6.5013242009128138
   191   0   2   0.0      5.6051523226239661      6.8233112669606024     0.17633110592104637
   192   0   3   0.0      5.0627172383797268      4.9069003342539848     0.70819317589560948
   193   0   3   0.0      4.7980265705452885      8.3256736761163381      1.3018073384377071
   194   0   3   0.0      7.5548084168087657      7.3432715665700359   -0.032816848460156992
   195   0   3   0.0      4.0405644578157691      7.3241167279001651      20.779738168158232
   196   0   2   0.0      18.371353235742546      3.5881526882931496      13.718273592925939
   197   0   3   0.0      18.833537748463218       5.503501892396458      14.178584302002019
   198   0   3   0.0      20.039994704961586      2.4903836368203658      13.646513792567491
   199   0   3   0.0      17.072619112204571      2.7928966572433414      15.122762644555689
   200   0   3   0.0      17.568188072871976      3.6112163702707623      11.830174561635189
   201   0   2   0.0      9.8325572317783418      15.167811480093979      12.999286679142292
   202   0   3   0.0      10.193359573094149      13.294238533995799      12.351755658789614
   203   0   3   0.0      7.8565037981681218       15.58491119227471      13.261819242593296
   204   0   3   0.0      10.750990716576153      15.400752750970511      14.782216463888732
   205   0   3   0.0      10.611105296301131      16.684678564585848      11.747964689654399
   206   0   2   0.0      20.507524372165392      14.785196177399149      1.5421953968553144
   207   0   3   0.0      20.253435295578225      16.797093232164659     0.83294134020520794
   208   0   3   0.0      22.003015111881417      14.306508204269512     0.20691746683340595
   209   0   3   0.0      20.693822761483549      14.395929449652499       3.539567911219458
   210   0   3   0.0      19.066574607745981      13.509175375025332     0.95217313869260667
   211   0   2   0.0      12.053959913762647      18.442447020593367      3.2731224617667487
   212   0   3   0.0      13.270659006554588       19.83557525745492      2.3797463098620999
   213   0   3   0.0      12.553182117155899      16.616892898667608      2.5847561068666112
   214   0   3   0.0      12.670495882972123       18.74870037375613      5.2132028889243642
   215   0   3   0.0      10.044853641150839      18.728368553350418      2.8862844039881845
   216   0   2   0.0      11.696814397156666      5.4771156386743058      14.913876315534715
   217   0   3   0.0      10.616524609335261      5.8599471754871724      16.582491979586308
   218   0   3   0.0      10.639719525852588      5.0789781180376616      13.254342238252555
   219   0   3   0.0      12.654377950097537      7.3279541922448859      15.105387387889071
   220   0   3   0.0      13.245666579506226      4.1803602506171513      14.839144693008468
   221   0   2   0.0       9.315131137288656      10.514861887290293      8.5229296803861523
   222   0   3   0.0      10.485301123400667      10.779025120677197      10.125372328623538
   223   0   3   0.0      10.506795414414135      10.562613793875629      6.9311040387266676
   224   0   3   0.0      7.9204633012156176      8.9906008104130919      8.5494636076237533
   225   0   3   0.0      8.3879050565914035      12.378005789690707      8.1823659872350767
   226   0   2   0.0      1.9205395970173214      9.9186150506672064      4.1206445865260868
   227   0   3   0.0      3.7091386912239241      10.015812364647941      5.0178787543926795
   228   0   3   0.0       1.266315177026935       11.85278463747491      3.8288102119012475
   229   0   3   0.0       2.068622275559862      8.8990287719565551      2.4110855782573872
   230   0   3   0.0     0.48780546293428917      8.8328864438672028      4.9895780192913488
   231   0   2   0.0       1.610304506555116      16.124374825665111      19.281389548609688
   232   0   3   0.0      3.0600863736961572      15.320945286727071      20.520850597833874
   233   0   3   0.0      2.3554957514532568      16.366879638286246      17.408114184028655
   234   0   3   0.0   0.0077747393375370843      14.800800355118859      19.259375615423949
   235   0   3   0.0     0.77797471139245278      17.735231886485611      20.304453487533813
   236   0   2   0.0      18.151890674675503       1.149885624324785      9.1509206404878221
   237   0   3   0.0      19.353412227308947     0.77845875521823849      10.721411602939071
   238   0   3   0.0       18.82702332507581      21.578793082707893      7.8775040612416269
   239   0   3   0.0      16.189139911492575     0.98951778738318941      9.4801051986878608
   240   0   3   0.0       18.44015898363855      2.4719720006227131      7.4992653838232508
   241   0   2   0.0      1.8785099588613594      9.5213572208777659      13.913516279191331
   242   0   3   0.0      1.1589865613696728       9.117862699637115      15.741862818868459
   243   0   3   0.0      2.1402915725932528        11.5227417600014      13.949500151706276
   244   0   3   0.0      3.4753995343031749      8.4295415337335253      13.308896335659112
   245   0   3   0.0     0.47880827660806852      8.8572723583202695       12.53482400179834
   246   0   2   0.0      13.028581400819615      11.758098584331602      15.970443809994009
   247   0   3   0.0       12.40166463379952      12.221563683634635      17.932335666562043
   248   0   3   0.0      14.596059744422835      12.873026728390379      15.266409828666077
   249   0   3   0.0      13.681471892610844      9.8122033261422743      16.160239016789244
   250   0   3   0.0      11.309288955969917      11.965179239015379      14.888019166922209
   251   0   2   0.0      10.102160223834014      1.0464288674343556      17.156823904874511
   252   0   3   0.0      11.816680979678441    0.078168520220677329      17.767711974062959
   253   0   3   0.0      9.0689048189956516     0.86623841459742201      19.069104924520371
   254   0   3   0.0      10.648795443415167      2.7701002620263555      16.307317356338555
   255   0   3   0.0      8.7645794602904026     0.16257457631969149      16.036908211597009
   256   0   2   0.0      13.029322765417486      16.900104790101885      16.922066706989241
   257   0   3   0.0      11.003209130422229      17.381988560824738      16.868676051209412
   258   0   3   0.0       14.24544441652785      18.517547645995304      16.737690805084579
   259   0   3   0.0      13.414975959657541       15.79239599724173        18.5586960786489
   260   0   3   0.0      13.231467938939049      15.581486407622119       15.46949115137347
   261   0   1   0.0     0.51326415497007427     0.38302318659994233      1.5991590964103903
   262   0   1   0.0     0.65444039128950804     0.49617911703317685      10.715933643439284
   263   0   1   0.0      21.906536006454296      3.5820277105922469      14.763882435875614
   264   0   1   0.0      1.5127067966919394      7.6534977502987944      17.749470530553523
   265   0   1   0.0     0.61170705712346984       9.307473852025943      9.4573979525926504
   266   0   1   0.0     0.21673240530229135      11.570424239380408      6.2288933745053727
   267   0   1   0.0      1.2444299592956889      14.235282112346333      3.6293542289484488
   268   0   1   0.0      1.7518025353319413       17.34806819723347      5.3274674450727462
   269   0   1   0.0     0.04995195188167674      19.903406023893005      3.8277588333560995
   270   0   1   0.0     0.88423312362661388      18.872149491708168      17.574092656900156
   271   0   1   0.0      2.7313663104580232   0.0073874458587623497      20.006611090179586
   272   0   1   0.0      2.4995467118655372      2.8023782318170927      2.5637704533803749
   273   0   1   0.0      1.6345495804803252      5.3390085114422412      4.6622520936779184
   274   0   1   0.0      2.3249016401090872      5.9141483432042676      8.1591515667780374
   275   0   1   0.0      1.9289476503341874      8.1024098903900299      21.951293588364379
   276   0   1   0.0      2.3876710704498101      13.997017147730663      6.5793218498296309
   277   0   1   0.0      1.7730659943552289      19.083114470549415      8.1469875130344764
   278   0   1   0.0      4.6228825309212951     0.33692623942406452      4.5597295386995285
   279   0   1   0.0      3.3602309531004337      1.5646164825108728      15.390912023818027
   280   0   1   0.0      3.1536600183368195      2.3669135887551236      8.8101402616120872
   281   0   1   0.0      4.2302446775208979       4.118293675615825      11.665678792196681
   282   0   1   0.0      3.1988499395577459      5.5363212591334641      15.960190645160115
   283   0   1   0.0      3.2102066929735464      4.8494222279685655      20.695376778880036
   284   0   1   0.0      4.0199607505937331      7.7842383260508363      3.7412886929560933
   285   0   1   0.0        4.03001634602093      8.2615192387659224      6.8632316790647847
   286   0   1   0.0      3.8361601198404558      10.160114235070978      11.220812324020535
   287   0   1   0.0      4.6346003063426853      10.647049642717308      18.769760627927283
   288   0   1   0.0      3.5648881808308621      13.140846014196145      15.170596199587425
   289   0   1   0.0      2.7926346341964812      13.958309448134802     0.97044198761863909
   290   0   1   0.0      3.6398480545930383      15.608986993304715      8.4846210168956766
   291   0   1   0.0      5.1907524043037325      15.633371554101902      11.175961271425574
   292   0   1   0.0      5.1478478449657343      16.747970304658452      20.862857420024444
   293   0   1   0.0      3.4745410445941571      18.042418821492934      13.430116814665302
   294   0   1   0.0      3.7317205830900053      19.004160008052629      2.1058826214842141
   295   0   1   0.0      5.0075211970852509      18.646674949866203      7.1052380337130989
   296   0   1   0.0      5.5584540570896959     0.77112340956675884      8.2223458909747915
   297   0   1   0.0      5.0652579318676993     0.28118322941456231      12.813435602877297
   298   0   1   0.0      6.0380035469992741   0.0080324380858800854      18.173968971030227
   299   0   1   0.0      5.2744895606674369      2.3735532099632879     0.67657684943631802
   300   0   1   0.0      5.9967041891801793      3.7047054963359574      15.973553975489128
   301   0   1   0.0      6.6080332850877053      6.7219819853268854      14.958219284140569
   302   0   1   0.0      5.8670038876369617      11.929957908812542      4.5233810533191621
   303   0   1   0.0      5.1564041582896678      13.238204667684698      20.479369758364367
   304   0   1   0.0      6.0259874246231542      14.592381921265284      14.720351851852966
   305   0   1   0.0      5.1540976566152183      17.775380218019627      17.311919680764447
   306   0   1   0.0      7.6355524939386701      4.3102432325262496      4.6354348086141259
   307   0   1   0.0      6.6494689049850475      6.4699992935137809      8.2017788193339225
   308   0   1   0.0      6.7878111548831281      7.5770107866399163      19.438167678489751
   309   0   1   0.0       6.703099127130697      9.8664825211602576      1.7423602261472046
   310   0   1   0.0      7.3491821186989892      12.424447969432565      10.623833735024522
   311   0   1   0.0      6.8611056394839096      13.947720274616612      1.2728378261449682
   312   0   1   0.0      6.9428472176585432      13.583914339418417      17.604682506501725
   313   0   1   0.0      7.5523302478538525      18.195888417590091      2.4845369291501669
   314   0   1   0.0      6.6908929223654496      17.812446990155582      10.271605467402603
   315   0   1   0.0      7.7281565330270743      20.060483725616496      17.145970105035175
   316   0   1   0.0       8.347428148272007    0.029896893161777918       3.189400442791654
   317   0   1   0.0      9.1013186112113296     0.70456636013971086      7.5232416045180317
   318   0   1   0.0      7.9609970320181551      21.649200116607382      13.760642333602839
   319   0   1   0.0      8.6178430932195695      4.8484002916154623      9.1559036458845888