LAMMPS (15 Sep 2022)
  using 1 OpenMP thread(s) per MPI task
Reading data file ...
  orthogonal box = (0 0 0) to (20.771073 20.771073 21.231424)
  3 by 4 by 6 MPI processor grid
  reading atoms ...
  432 atoms
Finding 1-2 1-3 1-4 neighbors ...
  special bond factors lj:    0        0        0       
  special bond factors coul:  0        0        0       
     0 = max # of 1-2 neighbors
     0 = max # of 1-3 neighbors
     0 = max # of 1-4 neighbors
     1 = max # of special neighbors
  special bonds CPU = 0.002 seconds
  read_data CPU = 0.018 seconds
New timer settings: style=normal  mode=nosync  timeout=00:00:00
162 atoms in group Li_atoms
54 atoms in group P_atoms
216 atoms in group S_atoms
Neighbor list info ...
  update: every = 1 steps, delay = 0 steps, check = yes
  max neighbors/atom: 2000, page size: 100000
  master list distance cutoff = 8
  ghost atom cutoff = 8
  binsize = 4, bins = 6 6 6
  1 neighbor lists, perpetual/occasional/extra = 1 0 0
  (1) pair quip, perpetual
      attributes: full, newton on
      pair build: full/bin
      stencil: full/bin/3d
      bin: standard
Setting up Verlet run ...
  Unit style    : metal
  Current step  : 0
  Time step     : 0.002
  Walltime left : 23:59:54.50
Per MPI rank memory allocation (min/avg/max) = 8.036 | 8.037 | 8.037 Mbytes
   Step         TotEng         PotEng         KinEng          Temp          Press     
         0  -3570136.6     -3570136.6      0              0              14580.375    
       100  -3570136.6     -3570136.9      0.32560359     5.8444989     -4942.9248    
       200  -3570136.5     -3570137.6      1.0157087      18.231704      8165.0072    
       300  -3570136.5     -3570137.6      1.1259557      20.210609      4689.2869    
       400  -3570136.4     -3570137        0.57347122     10.293658     -2299.725     
       500  -3570136.4     -3570136.5      0.1449256      2.6013765      13080.027    
       600  -3570136.3     -3570136.8      0.48975864     8.7910388     -4184.3486    
       700  -3570136.2     -3570137.6      1.3681333      24.557634      7605.6323    
       800  -3570136.1     -3570137.9      1.7764252      31.886366      5452.3856    
       900  -3570136       -3570137.1      1.1199691      20.103151     -4111.4106    
      1000  -3570135.9     -3570136.4      0.50013557     8.977302       15547.276    
      1100  -3570135.8     -3570136.4      0.66327407     11.905595     -6787.0126    
      1200  -3570135.7     -3570137.5      1.7848483      32.037558      9604.317     
      1300  -3570135.5     -3570137.9      2.3556988      42.284173      4391.0505    
      1400  -3570135.4     -3570136.9      1.4585736      26.181013     -5233.2992    
      1500  -3570135.2     -3570135.7      0.52099297     9.3516869      18184.856    
      1600  -3570135.1     -3570135.4      0.32917872     5.9086714     -10015.775    
      1700  -3570134.9     -3570136.7      1.7941535      32.204583      13853.083    
      1800  -3570134.7     -3570137.3      2.570262       46.135527      1178.7453    
      1900  -3570134.5     -3570136.2      1.6932995      30.394281     -2798.7205    
      2000  -3570134.2     -3570134.7      0.4424921      7.9426168      17187.342    
      2100  -3570134       -3570134.5      0.48765048     8.7531978     -8641.7689    
      2200  -3570133.7     -3570136.3      2.5721619      46.16963       12187.225    
      2300  -3570133.5     -3570137.7      4.204489       75.469473      3503.3296    
      2400  -3570133.2     -3570136.3      3.0947282      55.549557     -7158.6464    
      2500  -3570132.9     -3570134.4      1.5407804      27.656604      21603.794    
      2600  -3570132.5     -3570133.8      1.3406028      24.063467     -12623.388    
      2700  -3570132.2     -3570136        3.877337       69.597179      13557.282    
      2800  -3570131.8     -3570137.4      5.5930289      100.3934       4420.0389    
      2900  -3570131.4     -3570134.5      3.1765269      57.017822     -10989.773    
      3000  -3570130.9     -3570131.5      0.60881125     10.928002      28558.599    
      3100  -3570130.4     -3570131.1      0.73299951     13.157148     -17603.935    
      3200  -3570129.9     -3570135.8      5.8990749      105.88684      16446.126    
      3300  -3570129.3     -3570137        7.6185854      136.7516       3401.8068    
      3400  -3570128.8     -3570133.1      4.3631121      78.316715     -12435.94     
      3500  -3570128.1     -3570129.4      1.3254899      23.792194      30594.388    
      3600  -3570127.4     -3570131        3.541886       63.575923     -17097.882    
      3700  -3570126.8     -3570137.4      10.682777      191.75304      10329.424    
      3800  -3570126       -3570135.6      9.5955787      172.23811      10899.318    
      3900  -3570125.2     -3570127.3      2.0949711      37.604181     -15346.752    
      4000  -3570124.3     -3570125.2      0.96931349     17.398922      32961.959    
      4100  -3570123.3     -3570130.8      7.4624253      133.94857     -9803.8801    
      4200  -3570122.4     -3570135.6      13.133906      235.75016     -5641.4336    
      4300  -3570121.4     -3570131.4      9.9287156      178.21783      30659.532    
      4400  -3570120.3     -3570121.8      1.588103       28.506031     -26073.171    
      4500  -3570119.2     -3570130.8      11.555998      207.42713      26795.789    
      4600  -3570118       -3570136.9      18.866322      338.64552      2245.4991    
      4700  -3570116.8     -3570124.8      8.0649346      144.76345     -24817.25     
      4800  -3570115.4     -3570117.5      2.1319036      38.26711       50682.057    
      4900  -3570114       -3570122.7      8.7541532      157.13475     -22680.616    
      5000  -3570112.6     -3570131.7      19.048723      341.91957     -1408.3937    
      5100  -3570111.1     -3570123.4      12.326499      221.25742      37434.699    
      5200  -3570109.5     -3570115.5      6.0518976      108.62997     -31203.21     
      5300  -3570108       -3570133.2      25.258043      453.37522      18464.249    
      5400  -3570106.4     -3570131.4      24.993226      448.62183      22664.263    
      5500  -3570104.6     -3570109.2      4.6411329      83.307115     -33087.022    
      5600  -3570102.9     -3570128.1      25.149801      451.43232      33594.06     
      5700  -3570101.3     -3570132        30.748982      551.93614      10182.096    
      5800  -3570099.4     -3570104.1      4.6677751      83.785335     -34979.762    
      5900  -3570097.7     -3570118.6      20.926248      375.62066      48187.971    
      6000  -3570096.1     -3570131.6      35.484986      636.94617      3513.699     
      6100  -3570094.3     -3570098.9      4.6426467      83.334288     -27906.123    
      6200  -3570092.7     -3570122.6      29.880414      536.34558      39654.849    
      6300  -3570091.2     -3570131.1      39.902686      716.24272      14287.811    
      6400  -3570089.6     -3570094        4.4297834      79.513448     -36054.328    
      6500  -3570088.4     -3570130.3      41.816936      750.60301      21693.633    
      6600  -3570087.2     -3570121        33.775739      606.26563      37573.49     
      6700  -3570086       -3570095        8.9318612      160.32456     -31395.664    
      6800  -3570085.3     -3570126.2      40.91514       734.41601     -10232.308    
      6900  -3570084.4     -3570094.4      9.9736855      179.02503      73042.31     
      7000  -3570084.1     -3570111.4      27.297003      489.97403     -25335.316    
      7100  -3570083.9     -3570106.8      22.906896      411.17276     -24872.214    
      7200  -3570083.9     -3570098.4      14.421267      258.85795      65935.336    
      7300  -3570084.4     -3570124.2      39.854331      715.37477     -1381.436     
      7400  -3570084.7     -3570097.7      12.97466       232.89173     -36377.077    
      7500  -3570085.4     -3570113.7      28.307165      508.10616      51532.048    
      7600  -3570086.2     -3570127.6      41.389933      742.93842      9594.7292    
      7700  -3570086.8     -3570094.4      7.5405021      135.35003     -35809.401    
      7800  -3570087.8     -3570122.4      34.636967      621.72445      35875.416    
      7900  -3570088.5     -3570125.8      37.279475      669.15678      21440.642    
      8000  -3570089       -3570095.5      6.5102665      116.85757     -33153.756    
      8100  -3570089.7     -3570126.6      36.847608      661.40487      22897.519    
      8200  -3570090.3     -3570122.6      32.278725      579.39463      33360.508    
      8300  -3570090.6     -3570100.2      9.6441569      173.11008     -32903.463    
      8400  -3570091       -3570122.8      31.743669      569.7905       21329.946    
      8500  -3570091.2     -3570121.4      30.232998      542.67437      28142.109    
      8600  -3570091.2     -3570099.9      8.6988166      156.14147     -26481.319    
      8700  -3570091.2     -3570122.9      31.752268      569.94486      19714.506    
      8800  -3570090.8     -3570120.8      29.974278      538.03042      31673.493    
      8900  -3570090.2     -3570097.1      6.8846046      123.57684     -29428.806    
      9000  -3570089.7     -3570121.4      31.747971      569.86772      30114.487    
      9100  -3570088.9     -3570121        32.154701      577.16843      23477.894    
      9200  -3570087.9     -3570100.9      13.055803      234.34824     -26698.185    
      9300  -3570087       -3570117.1      30.069264      539.73539      20403.027    
      9400  -3570085.9     -3570114.8      28.893805      518.6362       40280.51     
      9500  -3570084.8     -3570099.9      15.116738      271.34147     -25118.616    
      9600  -3570083.9     -3570119        35.099544      630.02759      12523.951    
      9700  -3570082.9     -3570112        29.076107      521.90848      40103.432    
      9800  -3570081.9     -3570104.7      22.755715      408.45911     -16204.616    
      9900  -3570081.2     -3570114.4      33.176953      595.51759     -5529.2862    
     10000  -3570080.4     -3570108.1      27.638421      496.10238      47688.492    
     10100  -3570079.8     -3570115.7      35.895146      644.30843     -2118.7399    
     10200  -3570079.3     -3570102.1      22.772191      408.75485     -15833.54     
     10300  -3570079.1     -3570106.9      27.812372      499.22477      39776.288    
     10400  -3570079       -3570113.7      34.732074      623.43159      16724.687    
     10500  -3570079       -3570100.4      21.451021      385.04018     -17837.135    
     10600  -3570079.2     -3570112.8      33.57769       602.7107       24820.492    
     10700  -3570079.5     -3570111.9      32.404307      581.64879      25585.271    
     10800  -3570079.9     -3570102.1      22.244338      399.28001     -13398.267    
     10900  -3570080.4     -3570113.7      33.317693      598.04383      15480.484    
     11000  -3570080.9     -3570111        30.106397      540.40191      27710.37     
     11100  -3570081.4     -3570105.1      23.780333      426.85073     -10439.016    
     11200  -3570081.9     -3570112.3      30.469148      546.91319      10087.215    
     11300  -3570082.3     -3570110.8      28.51805       511.89151      28619.441    
     11400  -3570082.6     -3570106.2      23.654607      424.59397     -5089.7804    
     11500  -3570082.8     -3570111.8      28.980912      520.19975      9384.9446    
     11600  -3570082.9     -3570109.6      26.617417      477.77564      28105.02     
     11700  -3570083       -3570107.7      24.719843      443.71467     -3477.5619    
     11800  -3570082.9     -3570110.7      27.840539      499.73035      6545.3603    
     11900  -3570082.6     -3570108.8      26.171321      469.76832      28462.91     
     12000  -3570082.2     -3570108.6      26.405524      473.9722      -550.8063     
     12100  -3570081.8     -3570109.5      27.699519      497.19908      8053.2765    
     12200  -3570081.2     -3570108.3      27.170585      487.70486      28125.083    
     12300  -3570080.5     -3570107.8      27.32671       490.50726      1506.1279    
     12400  -3570079.8     -3570108.2      28.376495      509.35063      10139.724    
     12500  -3570079       -3570108.9      29.852985      535.85324      25910.738    
     12600  -3570078.3     -3570106.1      27.843532      499.78407      3811.4292    
     12700  -3570077.6     -3570109.1      31.513532      565.6596       10316.554    
     12800  -3570076.9     -3570106.6      29.650983      532.22735      25098.885    
     12900  -3570076.3     -3570106.4      30.150959      541.20179      5271.8824    
     13000  -3570075.7     -3570106.7      30.922812      555.05634      9987.7795    
     13100  -3570075.3     -3570106.7      31.394779      563.52802      25450.207    
     13200  -3570074.9     -3570106.2      31.291732      561.67835      6272.6577    
     13300  -3570074.6     -3570107.6      32.990721      592.17477      10372.322    
     13400  -3570074.5     -3570107.6      33.117762      594.45511      21616.316    
     13500  -3570074.4     -3570105.9      31.509402      565.58547      9924.4414    
     13600  -3570074.5     -3570105.9      31.453724      564.58607      12358.472    
     13700  -3570074.6     -3570107.8      33.234273      596.54647      19591.888    
     13800  -3570074.8     -3570108        33.173224      595.45065      10162.558    
     13900  -3570075.1     -3570106.9      31.79657       570.74007      14019.029    
     14000  -3570075.4     -3570106.9      31.501581      565.4451       18770.436    
     14100  -3570075.7     -3570104.7      29.006244      520.65445      12992.795    
     14200  -3570076.1     -3570106.6      30.510299      547.65185      15191.718    
     14300  -3570076.4     -3570107        30.639994      549.97983      17509.525    
     14400  -3570076.7     -3570105.6      28.956681      519.76481      12237.1      
     14500  -3570076.9     -3570107.1      30.207999      542.22564      13926.141    
     14600  -3570077       -3570108        31.013336      556.68123      14695.263    
     14700  -3570077.1     -3570107.4      30.347724      544.73367      13038.043    
     14800  -3570077       -3570105.2      28.167816      505.60488      14618.061    
     14900  -3570076.9     -3570108        31.105206      558.33026      16015.447    
     15000  -3570076.6     -3570106.6      29.972809      538.00404      12166.385    
     15100  -3570076.2     -3570105.5      29.245806      524.95452      14319.226    
     15200  -3570075.7     -3570104.7      28.972906      520.05604      15615.902    
     15300  -3570075.1     -3570105.3      30.174464      541.6237       13314.686    
     15400  -3570074.4     -3570106.3      31.896644      572.53638      15520.664    
     15500  -3570073.7     -3570104.4      30.78339       552.55375      15862.486    
     15600  -3570072.8     -3570104.4      31.586415      566.96784      14030.683    
     15700  -3570072       -3570106.9      34.865507      625.82669      14812.367    
     15800  -3570071.2     -3570102.7      31.537934      566.09763      15059.879    
     15900  -3570070.4     -3570103.8      33.445211      600.33273      15999.883    
     16000  -3570069.6     -3570102.9      33.328553      598.23877      14372.43     
     16100  -3570069       -3570103.6      34.670037      622.31804      16686.053    
     16200  -3570068.4     -3570103.3      34.879745      626.08225      17969.196    
     16300  -3570068       -3570103.5      35.480256      636.86127      13014.34     
     16400  -3570067.7     -3570102.5      34.817281      624.96104      18072.021    
     16500  -3570067.5     -3570103.4      35.904493      644.47621      16116.407    
     16600  -3570067.4     -3570101.3      33.881642      608.16656      14401.931    
     16700  -3570067.5     -3570104        36.540001      655.8834       16935.804    
     16800  -3570067.6     -3570102.4      34.803743      624.71804      17054.492    
     16900  -3570067.8     -3570101.9      34.022533      610.69553      13880.813    
     17000  -3570068.1     -3570103.6      35.460527      636.50714      17280.283    
     17100  -3570068.4     -3570102.8      34.345096      616.48545      17656.728    
     17200  -3570068.8     -3570104.8      36.014154      646.4446       12860.317    
     17300  -3570069.2     -3570103        33.811285      606.90367      16668.227    
     17400  -3570069.5     -3570103.6      34.070601      611.55833      15743.877    
     17500  -3570069.8     -3570102.6      32.810761      588.94452      14395.37     
     17600  -3570070       -3570103.5      33.43712       600.18751      17958.787    
     17700  -3570070.2     -3570104.8      34.613431      621.30199      12559.488    
     17800  -3570070.3     -3570105.3      35.057375      629.27067      13469.283    
     17900  -3570070.3     -3570103.3      33.058268      593.38723      19118.14     
     18000  -3570070.1     -3570102.5      32.428171      582.07714      14597.418    
     18100  -3570069.9     -3570103.1      33.229701      596.4644       15330.736    
     18200  -3570069.5     -3570102.3      32.743878      587.744        17692.74     
     18300  -3570069       -3570103.8      34.785925      624.39821      10711.464    
     18400  -3570068.5     -3570103.8      35.279329      633.25468      14633.889    
     18500  -3570067.8     -3570103.1      35.210176      632.0134       18011.585    
     18600  -3570067.1     -3570103.1      35.929277      644.92107      12729.994    
     18700  -3570066.4     -3570101.5      35.128218      630.54227      16124.975    
     18800  -3570065.7     -3570100.8      35.088969      629.83777      20065.215    
     18900  -3570065       -3570100        35.037597      628.91564      13878.19     
     19000  -3570064.3     -3570100.5      36.194179      649.676        16849.387    
     19100  -3570063.7     -3570101.6      37.892487      680.16017      19222.543    
     19200  -3570063.2     -3570099.4      36.264071      650.93054      15721.963    
     19300  -3570062.8     -3570098.4      35.631041      639.56782      15253.35     
     19400  -3570062.4     -3570100.8      38.365069      688.6429       19960.783    
     19500  -3570062.1     -3570099.8      37.719541      677.05585      16105.114    
     19600  -3570061.9     -3570100.4      38.45533       690.26306      15680.089    
     19700  -3570061.8     -3570099        37.252824      668.67839      18945.107    
     19800  -3570061.8     -3570098.3      36.549001      656.04495      17445.629    
     19900  -3570061.8     -3570099.7      37.910215      680.47839      13710.673    
     20000  -3570062       -3570099.6      37.598619      674.88533      20300.421    
     20100  -3570062.1     -3570100.1      37.979694      681.72552      17881.517    
     20200  -3570062.3     -3570098.8      36.502861      655.21675      13375.568    
     20300  -3570062.6     -3570098.9      36.352872      652.52449      17566.099    
     20400  -3570062.8     -3570099.8      37.00917       664.30487      19985.307    
     20500  -3570063       -3570101.1      38.094171      683.78035      13229.325    
     20600  -3570063.2     -3570098.6      35.406096      635.53012      17925.344    
     20700  -3570063.3     -3570099        35.691758      640.65766      21446.074    
     20800  -3570063.4     -3570098.6      35.140626      630.765        15367.211    
     20900  -3570063.4     -3570101.6      38.153713      684.84912      15471.53     
     21000  -3570063.3     -3570099.2      35.901858      644.42891      21114.067    
     21100  -3570063.2     -3570099.6      36.430743      653.92226      14601.205    
     21200  -3570062.9     -3570101.4      38.495792      690.98934      16243.235    
     21300  -3570062.6     -3570099.9      37.341199      670.26471      18877.642    
     21400  -3570062.1     -3570100.1      37.96643       681.48744      15776.357    
     21500  -3570061.6     -3570100.3      38.707874      694.79617      18562.993    
     21600  -3570061.1     -3570101.4      40.33653       724.0301       19067.595    
     21700  -3570060.5     -3570097.7      37.180089      667.37282      16530.138    
     21800  -3570059.9     -3570098.4      38.498331      691.03492      20852.914    
     21900  -3570059.2     -3570099.4      40.142351      720.54465      17164.248    
     22000  -3570058.6     -3570097        38.422015      689.66506      15024.186    
     22100  -3570058       -3570098.1      40.100735      719.79765      18609.886    
     22200  -3570057.5     -3570095.6      38.093696      683.77182      17937.857    
     22300  -3570056.9     -3570095.8      38.925484      698.7022       18885.309    
     22400  -3570056.5     -3570096.9      40.40435       725.24746      17603.069    
     22500  -3570056.1     -3570098.8      42.738144      767.13844      18334.665    
     22600  -3570055.8     -3570096        40.203906      721.64954      17505.144    
     22700  -3570055.7     -3570094.9      39.222468      704.03299      17824.027    
     22800  -3570055.6     -3570095.3      39.759217      713.6675       15750.316    
     22900  -3570055.6     -3570096.7      41.094085      737.62803      18685.962    
     23000  -3570055.6     -3570094.9      39.247121      704.4755       16574.223    
     23100  -3570055.8     -3570095.7      39.962637      717.31882      15950.027    
     23200  -3570055.9     -3570093.9      38.019288      682.43622      21532.705    
     23300  -3570056.1     -3570096.9      40.827843      732.84904      18811.782    
     23400  -3570056.3     -3570095.6      39.296442      705.3608       17928.938    
     23500  -3570056.6     -3570097.8      41.206688      739.64922      19111.745    
     23600  -3570056.8     -3570094.9      38.124892      684.33179      18127.75     
     23700  -3570057       -3570096.4      39.377739      706.82006      17326.878    
     23800  -3570057.1     -3570096.4      39.312772      705.65392      19736.833    
     23900  -3570057.2     -3570096.8      39.567221      710.22121      19431.187    
     24000  -3570057.2     -3570095.5      38.318806      687.8125       15301.875    
     24100  -3570057.1     -3570095.7      38.609152      693.02412      18198.562    
     24200  -3570056.9     -3570096.8      39.91717       716.50271      20838.635    
     24300  -3570056.6     -3570095.1      38.525924      691.5302       15328.063    
     24400  -3570056.2     -3570096.5      40.300061      723.3755       15942.604    
     24500  -3570055.7     -3570096.8      41.024158      736.37285      22404.394    
     24600  -3570055.2     -3570097.2      41.991834      753.74238      17482.812    
     24700  -3570054.7     -3570095.7      41.058463      736.98862      16466.889    
     24800  -3570054       -3570097.2      43.133613      774.23701      18636.494    
     24900  -3570053.4     -3570094.9      41.490512      744.74379      19376.67     
     25000  -3570052.8     -3570095.4      42.675258      766.00966      16062.222    
     25100  -3570052.1     -3570096.6      44.416771      797.26936      19747.988    
     25200  -3570051.6     -3570094.7      43.138765      774.32948      19503.969    
     25300  -3570051       -3570094.9      43.903417      788.0548       16937.772    
     25400  -3570050.5     -3570093.3      42.793267      768.1279       19871.034    
     25500  -3570050.1     -3570093.8      43.679953      784.04368      22111.965    
     25600  -3570049.8     -3570093.1      43.295248      777.13832      15417.716    
     25700  -3570049.5     -3570093        43.472532      780.32053      20478.725    
     25800  -3570049.3     -3570091.8      42.426519      761.54486      21507.796    
     25900  -3570049.2     -3570093.3      44.141354      792.3257       16674.315    
     26000  -3570049.2     -3570092.8      43.55227       781.7518       23066.827    
     26100  -3570049.3     -3570093.2      43.931077      788.55129      18722.024    
     26200  -3570049.4     -3570093        43.632913      783.19932      17676.565    
     26300  -3570049.6     -3570091        41.417188      743.42763      20158.645    
     26400  -3570049.8     -3570090.2      40.433961      725.77897      21331.283    
     26500  -3570050       -3570090.9      40.87338       733.66642      16442.774    
     26600  -3570050.3     -3570093.4      43.098435      773.60557      21169.594    
     26700  -3570050.5     -3570092.8      42.367717      760.48938      20806.932    
     26800  -3570050.6     -3570093.3      42.634505      765.27816      15463.085    
     26900  -3570050.8     -3570092.8      42.030625      754.43867      21364.515    
     27000  -3570050.8     -3570094.7      43.858353      787.2459       20512.607    
     27100  -3570050.8     -3570092.5      41.717236      748.81343      17944.739    
     27200  -3570050.7     -3570092        41.221226      739.91017      19134.414    
     27300  -3570050.6     -3570094.4      43.775021      785.75012      18694.595    
     27400  -3570050.4     -3570095.6      45.215178      811.60055      16564.766    
     27500  -3570050.1     -3570094.4      44.311832      795.38573      19387.538    
     27600  -3570049.7     -3570092.4      42.726789      766.93463      20272.458    
     27700  -3570049.3     -3570090.7      41.405328      743.21474      20676.539    
     27800  -3570048.7     -3570092.9      44.217654      793.69526      17184.391    
     27900  -3570048.1     -3570092.5      44.426901      797.45119      17105.809    
     28000  -3570047.4     -3570091.4      44.007202      789.9177       24877.542    
     28100  -3570046.7     -3570093.7      46.930481      842.3898       15577.133    
     28200  -3570046       -3570093.3      47.292441      848.88688      17063.498    
     28300  -3570045.4     -3570091.6      46.213982      829.52882      22180.758    
     28400  -3570044.8     -3570089.8      45.020166      808.10014      22099.437    
     28500  -3570044.2     -3570091.4      47.198075      847.19304      16445.565    
     28600  -3570043.8     -3570092.3      48.539301      871.26769      21810.814    
     28700  -3570043.4     -3570090.5      47.071029      844.9126       20862.6      
     28800  -3570043.1     -3570089.8      46.677492      837.8487       18085.457    
     28900  -3570043       -3570090        47.00126       843.66026      20540.257    
     29000  -3570042.9     -3570090.2      47.2908        848.85743      20101.103    
     29100  -3570042.9     -3570091.3      48.477644      870.16096      22987.887    
     29200  -3570042.9     -3570091.4      48.473244      870.08199      20747.912    
     29300  -3570043.1     -3570089.4      46.327707      831.57016      18457.708    
     29400  -3570043.3     -3570091.9      48.66752       873.5692       21654.789    
     29500  -3570043.5     -3570091.6      48.150195      864.28335      21300.406    
     29600  -3570043.7     -3570087.9      44.23568       794.01882      18693.384    
     29700  -3570043.9     -3570090.2      46.330412      831.61871      21870.367    
     29800  -3570044.1     -3570091.7      47.600909      854.4238       21009.752    
     29900  -3570044.3     -3570091        46.668503      837.68735      18087.904    
     30000  -3570044.4     -3570090.5      46.079273      827.11084      21909.489    
     30100  -3570044.5     -3570090.3      45.742793      821.07111      18514.405    
     30200  -3570044.5     -3570089.9      45.380248      814.56351      22402.28     
     30300  -3570044.4     -3570089.1      44.642616      801.32321      21131.765    
     30400  -3570044.3     -3570090        45.76224       821.42018      21541.818    
     30500  -3570044       -3570090.3      46.311421      831.27782      16625.663    
     30600  -3570043.7     -3570088.5      44.836999      804.81234      21050.481    
     30700  -3570043.2     -3570088.2      44.998624      807.71347      21574.809    
     30800  -3570042.8     -3570089.3      46.520765      835.03549      18454.237    
     30900  -3570042.2     -3570088.2      45.959365      824.95851      18252.17     
     31000  -3570041.6     -3570090.6      48.988294      879.32699      20420.148    
     31100  -3570041       -3570091.5      50.528497      906.97324      23295.582    
     31200  -3570040.3     -3570088.8      48.453686      869.73092      18865.297    
     31300  -3570039.7     -3570085.9      46.211365      829.48185      18945.532    
     31400  -3570039       -3570090.1      51.045415      916.25178      19886.636    
     31500  -3570038.5     -3570088.1      49.604639      890.39023      22111.272    
     31600  -3570038       -3570088.3      50.295582      902.79248      20742.566    
     31700  -3570037.5     -3570086        48.508653      870.71756      21772.954    
     31800  -3570037.2     -3570087        49.836346      894.54931      22670.06     
     31900  -3570036.9     -3570088.3      51.437273      923.28553      21342.434    
     32000  -3570036.7     -3570088.8      52.188978      936.77843      20710.375    
     32100  -3570036.6     -3570085.6      48.992699      879.40606      22322.275    
     32200  -3570036.6     -3570089.2      52.597852      944.11762      19127.971    
     32300  -3570036.6     -3570088.2      51.606981      926.33175      19999.997    
     32400  -3570036.7     -3570088.4      51.666394      927.39819      20075.355    
     32500  -3570036.9     -3570083.5      46.584341      836.17666      23327.733    
     32600  -3570037.1     -3570089        51.869596      931.0456       21432.604    
     32700  -3570037.3     -3570085.6      48.270531      866.44335      23840.567    
     32800  -3570037.6     -3570086.4      48.808723      876.10375      20473.086    
     32900  -3570037.8     -3570083.6      45.878611      823.509        20334.056    
     33000  -3570038       -3570084        46.049432      826.5752       22974.901    
     33100  -3570038.1     -3570086.9      48.740395      874.87728      23309.568    
     33200  -3570038.3     -3570089.9      51.656777      927.22556      20806.659    
     33300  -3570038.3     -3570088.5      50.127291      899.77169      21332.071    
     33400  -3570038.3     -3570085.4      47.056445      844.65082      23307.943    
     33500  -3570038.2     -3570086.5      48.331742      867.54207      20028.522    
     33600  -3570038       -3570087.8      49.791389      893.74233      19080.004    
     33700  -3570037.7     -3570088.2      50.549355      907.34764      23000.79     
     33800  -3570037.3     -3570087        49.752014      893.03556      20451.594    
     33900  -3570036.8     -3570087.3      50.498251      906.43033      21335.253    
     34000  -3570036.2     -3570087.9      51.646658      927.04392      22341.559    
     34100  -3570035.6     -3570088.3      52.757523      946.98366      20093.53     
     34200  -3570034.9     -3570086.5      51.640622      926.93559      22656.353    
     34300  -3570034.2     -3570085.3      51.119265      917.57736      23025.68     
     34400  -3570033.5     -3570085.2      51.697472      927.95603      22411.117    
     34500  -3570032.8     -3570083.8      51.091091      917.07165      21522.632    
     34600  -3570032.1     -3570086.1      53.974538      968.82876      24019.41     
     34700  -3570031.5     -3570086.8      55.319866      992.97705      22183.754    
     34800  -3570030.9     -3570083.4      52.488392      942.15284      19144.919    
     34900  -3570030.5     -3570080.5      50.045274      898.29951      23905.864    
     35000  -3570030.1     -3570083        52.945002      950.34887      25035.146    
     35100  -3570029.8     -3570082.2      52.397604      940.52321      19965.531    
     35200  -3570029.6     -3570081.7      52.111734      935.39193      23238.269    
     35300  -3570029.5     -3570082.7      53.197892      954.88817      23559.896    
     35400  -3570029.6     -3570083.6      54.072374      970.58489      23936.513    
     35500  -3570029.7     -3570080.7      50.985103      915.16919      24649.116    
     35600  -3570029.9     -3570081.1      51.124951      917.67943      23843.507    
     35700  -3570030.2     -3570085.8      55.561881      997.32116      23112.722    
     35800  -3570030.6     -3570085.4      54.832282      984.22504      19443.987    
     35900  -3570031       -3570082.8      51.847392      930.64705      21856.171    
     36000  -3570031.3     -3570084        52.730518      946.49894      22588.082    
     36100  -3570031.6     -3570083.8      52.158143      936.22496      22181.841    
     36200  -3570031.9     -3570084.4      52.554415      943.33793      20125.667    
     36300  -3570032       -3570085.4      53.401834      958.54888      25954.357    
     36400  -3570032.2     -3570086        53.791314      965.53995      23340.546    
     36500  -3570032.2     -3570085.4      53.148035      953.99325      21364.392    
     36600  -3570032.1     -3570082.7      50.590151      908.07991      24277.33     
     36700  -3570031.9     -3570085.2      53.22006       955.28609      23462.65     
     36800  -3570031.7     -3570084        52.302147      938.80978      22895.997    
     36900  -3570031.3     -3570084.1      52.793025      947.62091      23210.609    
     37000  -3570030.9     -3570084.4      53.5773        961.69844      23041.768    
     37100  -3570030.3     -3570081.7      51.362649      921.94604      26137.659    
     37200  -3570029.7     -3570084.7      55.078006      988.63572      20884.497    
     37300  -3570029       -3570081.9      52.90087       949.5567       21454.092    
     37400  -3570028.2     -3570083.4      55.212822      991.05564      23360.198    
     37500  -3570027.4     -3570083.7      56.311215      1010.7715      23271.954    
     37600  -3570026.6     -3570080.7      54.089346      970.88955      24570.265    
     37700  -3570025.9     -3570081.5      55.608032      998.14955      21513.89     
     37800  -3570025.2     -3570080.9      55.688507      999.59407      24034.587    
     37900  -3570024.6     -3570077.6      52.992128      951.19477      26404.284    
     38000  -3570024       -3570079.3      55.274068      992.15499      22133.76     
     38100  -3570023.6     -3570082        58.467785      1049.4814      26120.745    
     38200  -3570023.2     -3570079.8      56.603657      1016.0208      24530.667    
     38300  -3570022.9     -3570076.4      53.477187      959.90144      24616.578    
     38400  -3570022.8     -3570079.1      56.317305      1010.8808      22835.326    
     38500  -3570022.7     -3570078.9      56.137697      1007.6569      25154.347    
     38600  -3570022.8     -3570082.2      59.334099      1065.0315      25989.597    
     38700  -3570023       -3570080.5      57.501675      1032.1399      23948.767    
     38800  -3570023.3     -3570078.3      55.030852      987.78933      23633.188    
     38900  -3570023.6     -3570082.6      58.966638      1058.4357      22250.653    
     39000  -3570024       -3570081.9      57.87326       1038.8098      26140.033    
     39100  -3570024.3     -3570081.6      57.281923      1028.1955      24786.54     
     39200  -3570024.7     -3570080.2      55.481823      995.88414      23733.194    
     39300  -3570025.1     -3570083.6      58.550762      1050.9708      23173.959    
     39400  -3570025.3     -3570080.5      55.160767      990.12126      26722.334    
     39500  -3570025.6     -3570081.8      56.240222      1009.4972      25172.448    
     39600  -3570025.8     -3570080.3      54.527374      978.75202      19299.447    
     39700  -3570025.9     -3570081.3      55.381909      994.0907       22595.075    
     39800  -3570025.9     -3570077.8      51.874828      931.13953      25377.908    
     39900  -3570025.8     -3570078.5      52.666204      945.34452      22601.217    
     40000  -3570025.6     -3570079.9      54.380306      976.1122       18246.639    
     40100  -3570025.2     -3570081.3      56.063345      1006.3223      24988.233    
     40200  -3570024.7     -3570080.4      55.707193      999.92947      25406.44     
     40300  -3570024.1     -3570080.1      55.944174      1004.1832      22711.053    
     40400  -3570023.4     -3570079.6      56.256398      1009.7875      23125.645    
     40500  -3570022.6     -3570077.1      54.538358      978.94919      22450.562    
     40600  -3570021.8     -3570078.5      56.650306      1016.8581      24635.388    
     40700  -3570021       -3570080.5      59.477676      1067.6086      25174.23     
     40800  -3570020.2     -3570079.9      59.641439      1070.5482      24749.878    
     40900  -3570019.5     -3570080.7      61.174084      1098.0587      25836.085    
     41000  -3570018.8     -3570074.9      56.070078      1006.4432      23440.433    
     41100  -3570018.3     -3570075.9      57.616139      1034.1946      25044.159    
     41200  -3570017.8     -3570077        59.205599      1062.7249      23429.481    
     41300  -3570017.3     -3570079        61.67759       1107.0965      23366.082    
     41400  -3570017       -3570077.3      60.370412      1083.633       26879.808    
     41500  -3570016.7     -3570072.2      55.499656      996.20424      24695.993    
     41600  -3570016.5     -3570078.2      61.649301      1106.5887      28102.025    
     41700  -3570016.4     -3570076.8      60.375907      1083.7317      24512.436    
     41800  -3570016.4     -3570076.2      59.820529      1073.7628      25361.112    
     41900  -3570016.5     -3570076.5      59.971946      1076.4807      26426.701    
     42000  -3570016.7     -3570074.4      57.759732      1036.772       26986.401    
     42100  -3570017       -3570078.3      61.373552      1101.6391      25854.727    
     42200  -3570017.4     -3570077.9      60.542747      1086.7264      24844.758    
     42300  -3570017.8     -3570078.3      60.464102      1085.3147      23486.612    
     42400  -3570018.4     -3570074.7      56.290504      1010.3997      22473.143    
     42500  -3570019       -3570076.6      57.562314      1033.2284      25190.396    
     42600  -3570019.6     -3570077.1      57.433514      1030.9165      27334.823    
     42700  -3570020.3     -3570077.3      57.017807      1023.4546      23223.785    
     42800  -3570020.9     -3570078.1      57.198741      1026.7024      25529.577    
     42900  -3570021.4     -3570081.9      60.484856      1085.6873      21707.91     
     43000  -3570021.8     -3570081.2      59.414294      1066.471       23294.631    
     43100  -3570022.1     -3570080        57.903868      1039.3592      23655.446    
     43200  -3570022.1     -3570078.3      56.120465      1007.3476      25185.096    
     43300  -3570021.9     -3570077.4      55.444228      995.20931      25993.222    
     43400  -3570021.4     -3570083.5      62.096913      1114.6233      20111.957    
     43500  -3570020.6     -3570078.2      57.582626      1033.593       25468.903    
     43600  -3570019.2     -3570078.5      59.299232      1064.4056      27590.04     
     43700  -3570017.6     -3570077.7      60.071935      1078.2754      25780.184    
     43800  -3570016       -3570077.3      61.286719      1100.0805      21177.686    
     43900  -3570014.9     -3570075.1      60.258341      1081.6214      27132.59     
     44000  -3570014       -3570073.6      59.552063      1068.9439      30768.08     
     44100  -3570013.3     -3570075.5      62.152243      1115.6164      22338.315    
     44200  -3570012.9     -3570075.5      62.635399      1124.2889      27663.064    
     44300  -3570012.5     -3570075.1      62.624261      1124.089       29304.129    
     44400  -3570012.2     -3570072.4      60.208511      1080.7269      26255.914    
     44500  -3570012       -3570077        65.068223      1167.9575      26096.535    
     44600  -3570011.8     -3570076.2      64.396194      1155.8948      26751.071    
     44700  -3570011.6     -3570073.2      61.60929       1105.8706      26547.859    
     44800  -3570011.4     -3570072.1      60.766563      1090.7438      26258.053    
     44900  -3570011.2     -3570073.5      62.282549      1117.9554      23015.683    
     45000  -3570011.1     -3570072.8      61.728045      1108.0022      27425.839    
     45100  -3570011       -3570075.1      64.138174      1151.2634      28930.674    
     45200  -3570010.8     -3570072.1      61.245689      1099.344       25613.702    
     45300  -3570010.7     -3570074.3      63.625534      1142.0616      29051.357    
     45400  -3570010.5     -3570070        59.520638      1068.3798      28997.054    
     45500  -3570010.3     -3570073.2      62.933089      1129.6324      23299.587    
     45600  -3570010       -3570074.5      64.447393      1156.8138      25763.343    
     45700  -3570009.7     -3570073.5      63.736653      1144.0562      26971.295    
     45800  -3570009.3     -3570071.7      62.371499      1119.552       30620.877    
     45900  -3570008.8     -3570072.8      64.011527      1148.9901      26115.659    
     46000  -3570008.2     -3570071.3      63.065293      1132.0054      30239.952    
     46100  -3570007.6     -3570073.7      66.061215      1185.7814      27857.674    
     46200  -3570007       -3570069.9      62.855284      1128.2358      25653.726    
     46300  -3570006.5     -3570069.1      62.634304      1124.2693      27505.152    
     46400  -3570006       -3570070.2      64.210298      1152.558       27938.394    
     46500  -3570005.6     -3570066.2      60.675576      1089.1106      26823.266    
     46600  -3570005.2     -3570066.9      61.713782      1107.7462      33125.899    
     46700  -3570004.9     -3570067        62.066412      1114.0758      30015.69     
     46800  -3570004.8     -3570070.7      65.933439      1183.4879      25317.884    
     46900  -3570004.7     -3570070.2      65.486878      1175.4722      24523.961    
     47000  -3570004.9     -3570071.2      66.298399      1190.0388      28796.992    
     47100  -3570005.3     -3570072.6      67.31432       1208.2743      30663.961    
     47200  -3570005.8     -3570072.7      66.932046      1201.4126      29219.437    
     47300  -3570006.4     -3570072.2      65.7819        1180.7678      25821.032    
     47400  -3570007.3     -3570071.8      64.490564      1157.5887      25470.116    
     47500  -3570008.3     -3570069        60.67371       1089.0771      26437.238    
     47600  -3570009.4     -3570074.2      64.818397      1163.4732      24920.381    
     47700  -3570010.4     -3570072.6      62.243934      1117.2622      26933.605    
     47800  -3570011.3     -3570071.9      60.679174      1089.1752      26970.267    
     47900  -3570012       -3570072.4      60.40986       1084.3411      28901.257    
     48000  -3570012.4     -3570074.3      61.897745      1111.0483      23810.818    
     48100  -3570012.6     -3570072.9      60.285001      1082.0999      25230.8      
     48200  -3570012.6     -3570075.3      62.692033      1125.3055      27620.174    
     48300  -3570012.4     -3570076.2      63.837629      1145.8687      24914.121    
     48400  -3570011.7     -3570073.3      61.524209      1104.3434      25246.6      
     48500  -3570010.7     -3570074        63.263317      1135.5599      24224.79     
     48600  -3570009.3     -3570073.4      64.090197      1150.4022      25534.833    
     48700  -3570007.6     -3570073        65.380097      1173.5556      27226.184    
     48800  -3570005.9     -3570068.8      62.818907      1127.5829      27714.605    
     48900  -3570004.7     -3570069.5      64.777766      1162.7439      26566.723    
     49000  -3570003.9     -3570070.2      66.300803      1190.082       29637.196    
     49100  -3570003.4     -3570071.2      67.773997      1216.5254      30760.246    
     49200  -3570003       -3570070        67.00294       1202.6852      28676.332    
     49300  -3570002.7     -3570073.8      71.146689      1277.0644      28424.332    
     49400  -3570002.4     -3570067.1      64.761367      1162.4495      28764.517    
     49500  -3570002.1     -3570065.2      63.09859       1132.6031      30156.907    
     49600  -3570001.8     -3570068.3      66.528841      1194.1752      25976.385    
     49700  -3570001.5     -3570065.7      64.200418      1152.3806      32052.28     
     49800  -3570001.3     -3570067.5      66.233974      1188.8824      29900.782    
     49900  -3570001       -3570068.3      67.293776      1207.9056      31281.229    
     50000  -3570000.7     -3570067.6      66.866689      1200.2395      30856.684    
Loop time of 5078.02 on 72 procs for 50000 steps with 432 atoms

Performance: 1.701 ns/day, 14.106 hours/ns, 9.846 timesteps/s, 4.254 katom-step/s
86.7% CPU use with 72 MPI tasks x 1 OpenMP threads

MPI task timing breakdown:
Section |  min time  |  avg time  |  max time  |%varavg| %total
---------------------------------------------------------------
Pair    | 3715.7     | 3961.4     | 4231.4     | 166.0 | 78.01
Bond    | 0.022254   | 0.028713   | 0.037905   |   1.8 |  0.00
Neigh   | 0.051326   | 0.052602   | 0.055096   |   0.3 |  0.00
Comm    | 843.89     | 1113.8     | 1359.6     | 313.1 | 21.93
Output  | 1.334      | 1.3344     | 1.3443     |   0.1 |  0.03
Modify  | 0.90074    | 0.94352    | 1.0103     |   2.5 |  0.02
Other   |            | 0.3895     |            |       |  0.01

Nlocal:              6 ave          10 max           4 min
Histogram: 9 20 0 17 0 18 6 0 0 2
Nghost:        450.819 ave         459 max         441 min
Histogram: 3 5 6 5 4 17 11 11 7 3
Neighs:              0 ave           0 max           0 min
Histogram: 72 0 0 0 0 0 0 0 0 0
FullNghs:      595.111 ave        1001 max         389 min
Histogram: 9 20 0 17 9 9 6 0 0 2

Total # of neighbors = 42848
Ave neighs/atom = 99.185185
Ave special neighs/atom = 0
Neighbor list builds = 1376
Dangerous builds = 0
Setting up Verlet run ...
  Unit style    : metal
  Current step  : 50000
  Time step     : 0.002
  Walltime left : 22:35:16.21
Per MPI rank memory allocation (min/avg/max) = 8.045 | 8.046 | 8.047 Mbytes
   Step         TotEng         PotEng         KinEng          Temp          Press     
     50000  -3570000.7     -3570067.6      66.866689      1200.2395      30856.684    
     50100  -3570000.7     -3570068.5      67.743543      1215.9788      26869.043    
     50200  -3570000.7     -3570063.6      62.903592      1129.1029      29995.079    
     50300  -3570000.8     -3570067.2      66.385998      1191.6112      29146.141    
     50400  -3570001       -3570066.6      65.638627      1178.1961      30860.881    
     50500  -3570001.1     -3570066.3      65.13095       1169.0834      26044.881    
     50600  -3570001.4     -3570068.2      66.815292      1199.3169      30220.805    
     50700  -3570001.6     -3570065.8      64.17636       1151.9488      32832.385    
     50800  -3570001.9     -3570072.8      70.945191      1273.4475      26261.772    
     50900  -3570002.4     -3570069.9      67.470805      1211.0832      29261.178    
     51000  -3570003       -3570067.5      64.468066      1157.1848      28269.265    
     51100  -3570003.8     -3570071.6      67.871887      1218.2825      27581.598    
     51200  -3570004.5     -3570069        64.456971      1156.9857      30064.517    
     51300  -3570005.3     -3570068.3      63.024598      1131.275       26159.775    
     51400  -3570006       -3570069.2      63.192086      1134.2813      26772.596    
     51500  -3570006.6     -3570071.2      64.61672       1159.8531      26297.075    
     51600  -3570007       -3570070.1      63.054639      1131.8142      31369.292    
     51700  -3570007.3     -3570068        60.717516      1089.8635      24872.266    
     51800  -3570007.3     -3570072.1      64.736804      1162.0086      23950.639    
     51900  -3570007.2     -3570072.6      65.385441      1173.6515      29797.209    
     52000  -3570006.8     -3570072.2      65.372777      1173.4242      28191.472    
     52100  -3570006.2     -3570072.1      65.959211      1183.9505      27111.033    
     52200  -3570005.3     -3570070.6      65.313675      1172.3633      29400.808    
     52300  -3570004.2     -3570067.3      63.189382      1134.2328      27797.559    
     52400  -3570002.7     -3570071.1      68.354245      1226.9407      25551.077    
     52500  -3570001.3     -3570069.6      68.308683      1226.1229      33413.504    
     52600  -3570000.1     -3570066.9      66.868919      1200.2795      26326.749    
     52700  -3569999.1     -3570065.9      66.760473      1198.3329      28400.326    
     52800  -3569998.4     -3570067        68.566083      1230.7432      32046.701    
     52900  -3569998       -3570066.2      68.189088      1223.9762      28421.628    
     53000  -3569997.7     -3570066.6      68.876861      1236.3215      30861.569    
     53100  -3569997.6     -3570064.9      67.366724      1209.215       27457.227    
     53200  -3569997.7     -3570068.8      71.112529      1276.4512      29943.78     
     53300  -3569997.9     -3570068.7      70.775805      1270.4071      32796.565    
     53400  -3569998.3     -3570065.7      67.47881       1211.2269      32722.769    
     53500  -3569998.7     -3570070        71.300303      1279.8217      26490.749    
     53600  -3569999.3     -3570070.5      71.202078      1278.0586      28386.436    
     53700  -3570000       -3570069.8      69.794246      1252.7884      29447.522    
     53800  -3570000.7     -3570067.5      66.721107      1197.6263      24448.255    
     53900  -3570001.5     -3570068.6      67.091834      1204.2808      23682.741    
     54000  -3570002.4     -3570067.2      64.804406      1163.222       26724.292    
     54100  -3570003.1     -3570074.3      71.194474      1277.9221      25942.827    
     54200  -3570003.8     -3570070.3      66.521623      1194.0456      28776.698    
     54300  -3570004.3     -3570070.3      66.018258      1185.0104      26108.703    
     54400  -3570004.8     -3570070.4      65.598271      1177.4717      23411.008    
     54500  -3570005.1     -3570069.5      64.375719      1155.5272      31437.58     
     54600  -3570005.3     -3570071.6      66.30456       1190.1494      27250.521    
     54700  -3570005.4     -3570070        64.648924      1160.4312      24049.417    
     54800  -3570005.3     -3570071.6      66.300039      1190.0683      24477.256    
     54900  -3570005.1     -3570071.6      66.488049      1193.443       28465.101    
     55000  -3570004.3     -3570071.1      66.815825      1199.3265      28112.722    
     55100  -3570002.8     -3570070.3      67.555235      1212.5987      30732.732    
     55200  -3570000.6     -3570068        67.37646       1209.3897      29713.674    
     55300  -3569998.6     -3570071        72.436427      1300.2148      28124.744    
     55400  -3569996.9     -3570070.4      73.463295      1318.6468      28183.984    
     55500  -3569995.9     -3570064.6      68.768984      1234.3852      28965.162    
     55600  -3569995.2     -3570065.8      70.660136      1268.3309      31601.174    
     55700  -3569994.8     -3570064.7      69.940183      1255.4079      30128.401    
     55800  -3569994.7     -3570062.8      68.111577      1222.5849      31225.529    
     55900  -3569994.9     -3570069.3      74.387144      1335.2297      32490.337    
     56000  -3569995.4     -3570065.1      69.692662      1250.965       30144.948    
     56100  -3569996.1     -3570068.5      72.43694       1300.224       29464.03     
     56200  -3569997.1     -3570069.5      72.429071      1300.0828      29447.186    
     56300  -3569998.2     -3570067.2      68.994903      1238.4404      27606.255    
     56400  -3569999.5     -3570067.5      68.083892      1222.088       30276.995    
     56500  -3570000.6     -3570068.5      67.8932        1218.6651      27825.961    
     56600  -3570001.7     -3570066.2      64.539848      1158.4733      31594.213    
     56700  -3570002.6     -3570066.4      63.805416      1145.2904      29932.245    
     56800  -3570003.3     -3570070.7      67.466527      1211.0064      29679.218    
     56900  -3570003.8     -3570066.9      63.068201      1132.0576      30995.903    
     57000  -3570004.2     -3570072.8      68.578092      1230.9587      26646.226    
     57100  -3570004.5     -3570069.9      65.329333      1172.6443      25683.167    
     57200  -3570004.7     -3570068.7      63.966705      1148.1855      27572.366    
     57300  -3570004.7     -3570072        67.307963      1208.1602      22529.343    
     57400  -3570004.6     -3570066.9      62.268322      1117.7         22565.419    
     57500  -3570004.4     -3570067.7      63.322723      1136.6262      29104.338    
     57600  -3570004       -3570069.5      65.506168      1175.8185      30170.077    
     57700  -3570003.5     -3570074.2      70.750125      1269.9461      27745.587    
     57800  -3570002.7     -3570068.6      65.92388       1183.3163      24935.005    
     57900  -3570001.7     -3570069        67.305372      1208.1137      26908.143    
     58000  -3570000.3     -3570070.6      70.221868      1260.4641      28979.037    
     58100  -3569998.8     -3570068.2      69.387006      1245.4785      26560.117    
     58200  -3569997.3     -3570065.3      68.012353      1220.8039      22799.189    
     58300  -3569996       -3570063.8      67.794964      1216.9018      29193.044    
     58400  -3569995       -3570065.9      70.875809      1272.2021      29867.391    
     58500  -3569994.3     -3570066.9      72.538825      1302.0528      34496.701    
     58600  -3569994       -3570064.6      70.527346      1265.9473      29272.052    
     58700  -3569994.1     -3570063.5      69.363357      1245.054       27875.158    
     58800  -3569994.5     -3570064.3      69.752465      1252.0384      28228.811    
     58900  -3569995.1     -3570066.7      71.585896      1284.948       28712.097    
     59000  -3569995.7     -3570063        67.281108      1207.6782      30753.31     
     59100  -3569996.4     -3570066.1      69.673315      1250.6177      30944.197    
     59200  -3569997.2     -3570065        67.853173      1217.9466      30904.98     
     59300  -3569997.8     -3570067.2      69.473795      1247.0364      30179.542    
     59400  -3569998.3     -3570068.5      70.140439      1259.0024      31017.304    
     59500  -3569998.9     -3570066        67.098412      1204.3989      29255.334    
     59600  -3569999.4     -3570067.2      67.731839      1215.7687      29658.979    
     59700  -3569999.9     -3570069.9      69.981106      1256.1424      30429.723    
     59800  -3570000.4     -3570067.1      66.725395      1197.7033      28065.315    
     59900  -3570000.9     -3570067.1      66.200984      1188.2903      27416.606    
     60000  -3570001.3     -3570071.2      69.866693      1254.0888      27845.947    
     60100  -3570001.7     -3570066.1      64.38137       1155.6287      33611.738    
     60200  -3570002.1     -3570071        68.860245      1236.0233      29382.152    
     60300  -3570002.5     -3570072.8      70.360433      1262.9513      24392.869    
     60400  -3570002.7     -3570066.6      63.860433      1146.278       28606.308    
     60500  -3570003       -3570069.9      66.970212      1202.0977      30942.616    
     60600  -3570003.2     -3570069.3      66.161793      1187.5868      26035.929    
     60700  -3570003.2     -3570071.6      68.371473      1227.25        28052.465    
     60800  -3570003.3     -3570069        65.691051      1179.1371      29971.646    
     60900  -3570003.3     -3570071.9      68.668472      1232.581       24802.986    
     61000  -3570003.2     -3570066.9      63.682602      1143.086       29105.793    
     61100  -3570003       -3570065.3      62.331344      1118.8312      32284.385    
     61200  -3570002.7     -3570070.6      67.936243      1219.4377      24088.434    
     61300  -3570002.1     -3570066.9      64.812058      1163.3594      28584.335    
     61400  -3570001.3     -3570070.2      68.825051      1235.3916      31746.724    
     61500  -3570000.5     -3570067.6      67.12566       1204.8879      30014.19     
     61600  -3569999.6     -3570067.4      67.827096      1217.4785      23526.26     
     61700  -3569998.8     -3570066.8      68.055611      1221.5803      30674.737    
     61800  -3569997.9     -3570067.9      69.95379       1255.6521      30470.206    
     61900  -3569997.3     -3570065.7      68.41228       1227.9824      29900.794    
     62000  -3569996.7     -3570065.3      68.601316      1231.3756      27113.217    
     62100  -3569996.4     -3570066.3      69.875728      1254.2509      29860.694    
     62200  -3569996.3     -3570065.5      69.20191       1242.1561      31045.747    
     62300  -3569996.3     -3570061.6      65.295056      1172.0291      29892.454    
     62400  -3569996.6     -3570067.8      71.170701      1277.4954      29731.687    
     62500  -3569997.1     -3570068.8      71.641728      1285.9502      26215.227    
     62600  -3569998       -3570061.1      63.08772       1132.408       28219.446    
     62700  -3569999.1     -3570065.6      66.458546      1192.9134      29815.465    
     62800  -3570000.4     -3570068.9      68.503064      1229.612       32374.318    
     62900  -3570001.8     -3570069.2      67.432681      1210.3989      27629.965    
     63000  -3570003.1     -3570066.3      63.194491      1134.3245      25199.856    
     63100  -3570004.1     -3570069.7      65.592016      1177.3594      26710.843    
     63200  -3570004.8     -3570070        65.223348      1170.742       32771.611    
     63300  -3570005.3     -3570072.3      67.017055      1202.9385      29177.324    
     63400  -3570005.5     -3570068.8      63.358785      1137.2735      26056.45     
     63500  -3570005.5     -3570073.7      68.145141      1223.1874      26860.094    
     63600  -3570005.5     -3570072.6      67.141914      1205.1797      28729.542    
     63700  -3570005.2     -3570070.6      65.402819      1173.9634      26239.832    
     63800  -3570005       -3570072.2      67.193397      1206.1038      24683.647    
     63900  -3570004.6     -3570071.1      66.456606      1192.8786      28114.089    
     64000  -3570004.2     -3570072.8      68.692518      1233.0126      27012.104    
     64100  -3570003.7     -3570070.5      66.798001      1199.0066      30906.973    
     64200  -3570003.1     -3570067.6      64.491682      1157.6087      27083.513    
     64300  -3570002.6     -3570068.8      66.198391      1188.2437      23541.393    
     64400  -3570002.1     -3570068.3      66.161592      1187.5832      29380.945    
     64500  -3570001.6     -3570070.5      68.872358      1236.2407      29544.373    
     64600  -3570001.2     -3570072.1      70.857615      1271.8756      28681.726    
     64700  -3570000.9     -3570070.1      69.231946      1242.6952      28227.547    
     64800  -3570000.6     -3570068.7      68.052112      1221.5175      34118.339    
     64900  -3570000.3     -3570068.8      68.491228      1229.3995      29377.788    
     65000  -3570000.1     -3570069        68.960756      1237.8274      27749.316    
     65100  -3569999.8     -3570064.7      64.952432      1165.8791      28828.421    
     65200  -3569999.4     -3570068.1      68.707412      1233.28        29219.028    
     65300  -3569998.9     -3570066.2      67.296146      1207.9481      28123.149    
     65400  -3569998       -3570065.8      67.76839       1216.4248      25379.81     
     65500  -3569996.6     -3570065.9      69.236094      1242.7697      28662.19     
     65600  -3569995.2     -3570064.3      69.18124       1241.7851      26463.987    
     65700  -3569993.8     -3570065.5      71.662254      1286.3186      31219.284    
     65800  -3569992.8     -3570062.8      70.003263      1256.5402      31652.027    
     65900  -3569992.1     -3570062.2      70.039995      1257.1995      31107.811    
     66000  -3569991.9     -3570067.4      75.538047      1355.8881      29954.493    
     66100  -3569991.9     -3570062        70.114299      1258.5332      28821.661    
     66200  -3569992.3     -3570064.6      72.265486      1297.1465      31171.253    
     66300  -3569993.1     -3570066.2      73.017947      1310.6529      30684.575    
     66400  -3569994.3     -3570068.1      73.847681      1325.5465      27486.273    
     66500  -3569995.7     -3570061.3      65.584251      1177.2201      32917.266    
     66600  -3569997.2     -3570067.5      70.365718      1263.0461      32411.806    
     66700  -3569998.5     -3570067.1      68.651408      1232.2747      26061.764    
     66800  -3569999.6     -3570065.9      66.290934      1189.9048      28164.171    
     66900  -3570000.6     -3570066.5      65.88072       1182.5416      29764.1      
     67000  -3570001.4     -3570068.7      67.379971      1209.4528      25901.6      
     67100  -3570002       -3570067.7      65.705598      1179.3982      29616.49     
     67200  -3570002.5     -3570068.6      66.112742      1186.7063      28783.984    
     67300  -3570003       -3570069        66.008788      1184.8404      26896.64     
     67400  -3570003.3     -3570067        63.692741      1143.268       27625.011    
     67500  -3570003.6     -3570069.3      65.710052      1179.4782      26155.157    
     67600  -3570003.8     -3570066.4      62.586493      1123.4111      26100.558    
     67700  -3570003.9     -3570069.1      65.195008      1170.2333      25098.563    
     67800  -3570003.9     -3570070.3      66.426908      1192.3455      27589.197    
     67900  -3570003.8     -3570071.2      67.433039      1210.4053      25474.885    
     68000  -3570003.6     -3570069.7      66.020773      1185.0555      24968.963    
     68100  -3570003.4     -3570071.8      68.467854      1228.98        25859.197    
     68200  -3570002.9     -3570071.9      68.991699      1238.3829      28490.791    
     68300  -3570002.2     -3570067.8      65.633506      1178.1042      31461.173    
     68400  -3570001.3     -3570065.2      63.897397      1146.9415      28944.697    
     68500  -3570000.1     -3570068.2      68.161147      1223.4747      27883.484    
     68600  -3569998.6     -3570068.8      70.107186      1258.4056      24063.515    
     68700  -3569997.3     -3570063        65.696545      1179.2357      31202.939    
     68800  -3569996.1     -3570064        67.886946      1218.5528      28463.571    
     68900  -3569995.1     -3570060.6      65.469812      1175.1659      31305.328    
     69000  -3569994.5     -3570065.3      70.834017      1271.452       30203.677    
     69100  -3569994.2     -3570067.7      73.515965      1319.5922      30583.488    
     69200  -3569994.2     -3570064.1      69.901512      1254.7138      31674.74     
     69300  -3569994.5     -3570067.7      73.183017      1313.6159      28892.006    
     69400  -3569995.1     -3570063.6      68.427845      1228.2618      29279.758    
     69500  -3569996       -3570067.5      71.542624      1284.1713      31055.474    
     69600  -3569997.1     -3570066.5      69.39442       1245.6116      31264.554    
     69700  -3569998.3     -3570065.6      67.302421      1208.0608      28490.22     
     69800  -3569999.5     -3570068.7      69.260149      1243.2015      27296.704    
     69900  -3570000.5     -3570067.5      67.053382      1203.5906      29042.069    
     70000  -3570001.2     -3570068.8      67.619205      1213.747       26555.76     
     70100  -3570001.6     -3570068.5      66.918203      1201.1641      25791.283    
     70200  -3570001.9     -3570070.4      68.557018      1230.5805      25036.53     
     70300  -3570002.1     -3570070.1      67.994334      1220.4804      25547.415    
     70400  -3570002.2     -3570068.7      66.496977      1193.6032      28999.617    
     70500  -3570002.3     -3570068.5      66.223079      1188.6869      28274.999    
     70600  -3570002.4     -3570069.5      67.116431      1204.7223      25708.566    
     70700  -3570002.4     -3570066.5      64.106138      1150.6883      27101.915    
     70800  -3570002.3     -3570070.5      68.200957      1224.1892      26590.41     
     70900  -3570002.3     -3570068.4      66.141066      1187.2148      29632.407    
     71000  -3570002.1     -3570065.9      63.781945      1144.8691      30367.664    
     71100  -3570001.8     -3570070.9      69.082586      1240.0143      27705.218    
     71200  -3570001.5     -3570067.8      66.264499      1189.4303      24985.523    
     71300  -3570001.1     -3570069        67.910972      1218.9841      25465.143    
     71400  -3570000.6     -3570068.5      67.974265      1220.1202      31959.259    
     71500  -3570000       -3570067.9      67.989468      1220.3931      30868.752    
     71600  -3569999.2     -3570066        66.825385      1199.4981      30559.077    
     71700  -3569998.3     -3570064.9      66.607987      1195.5959      27164.729    
     71800  -3569997.4     -3570069.2      71.837011      1289.4555      32442.711    
     71900  -3569996.3     -3570068.7      72.336511      1298.4214      27745.271    
     72000  -3569995.4     -3570062.9      67.534806      1212.232       28692.326    
     72100  -3569994.4     -3570065.9      71.511042      1283.6044      30476.419    
     72200  -3569993.5     -3570064.7      71.164516      1277.3843      35866.234    
     72300  -3569992.9     -3570064.2      71.259615      1279.0914      29827.202    
     72400  -3569992.5     -3570063.5      71.029145      1274.9545      29113.62     
     72500  -3569992.3     -3570062.6      70.336731      1262.5258      30138.741    
     72600  -3569992.4     -3570064.4      71.980207      1292.0258      31810.78     
     72700  -3569992.9     -3570062        69.108902      1240.4866      27470.814    
     72800  -3569994       -3570063.1      69.133514      1240.9284      28847.419    
     72900  -3569995.8     -3570064.6      68.844205      1235.7354      32067.28     
     73000  -3569997.9     -3570068.1      70.1573        1259.3051      29299.054    
     73100  -3569999.9     -3570065.7      65.758645      1180.3504      30010.979    
     73200  -3570001.2     -3570067.5      66.310297      1190.2524      26013.171    
     73300  -3570002.1     -3570067.1      65.006156      1166.8434      26115.731    
     73400  -3570002.7     -3570064.5      61.81172       1109.5041      28684.249    
     73500  -3570003.1     -3570070.6      67.508277      1211.7558      26188.186    
     73600  -3570003.3     -3570068.7      65.434226      1174.5271      30747        
     73700  -3570003.5     -3570068.2      64.727501      1161.8416      30237.442    
     73800  -3570003.6     -3570068.8      65.226082      1170.791       26793.42     
     73900  -3570003.7     -3570066.7      62.99351       1130.7169      26578.681    
     74000  -3570003.7     -3570070.7      67.059195      1203.6949      26783.587    
     74100  -3570003.6     -3570071.8      68.192989      1224.0462      26756.604    
     74200  -3570003.4     -3570067.5      64.12851       1151.0899      26812.154    
     74300  -3570003.2     -3570069        65.884472      1182.6089      30876.689    
     74400  -3570002.8     -3570065.9      63.142722      1133.3953      29411.994    
     74500  -3570002.3     -3570068.9      66.555422      1194.6523      25509.173    
     74600  -3570001.7     -3570068.5      66.775533      1198.6033      28079.685    
     74700  -3570001       -3570067.7      66.651472      1196.3764      29375.301    
     74800  -3570000.2     -3570068        67.785869      1216.7385      28641.719    
     74900  -3569999.2     -3570069.7      70.48706       1265.2242      26665.009    
     75000  -3569998.2     -3570065.5      67.266178      1207.4102      28962.04     
     75100  -3569997.4     -3570069.5      72.077596      1293.7739      26858.581    
     75200  -3569996.5     -3570067        70.429182      1264.1853      30146.095    
     75300  -3569995.8     -3570062.5      66.690649      1197.0796      31297.515    
     75400  -3569995.2     -3570064.2      68.980408      1238.1802      28824.939    
     75500  -3569994.8     -3570066.4      71.577142      1284.7909      28396.758    
     75600  -3569994.7     -3570064.1      69.434083      1246.3235      31742.637    
     75700  -3569994.7     -3570063.9      69.137739      1241.0042      27478.824    
     75800  -3569995.2     -3570066.8      71.558981      1284.4649      33260.477    
     75900  -3569996.3     -3570068.3      72.022562      1292.786       29320.391    
     76000  -3569998       -3570065.9      67.836233      1217.6425      30536.455    
     76100  -3570000.1     -3570069        68.829329      1235.4684      28148.301    
     76200  -3570002       -3570068        65.967339      1184.0964      30048.464    
     76300  -3570003.4     -3570068.9      65.570208      1176.968       30226.485    
     76400  -3570004.2     -3570067.8      63.596399      1141.5386      28870.155    
     76500  -3570004.7     -3570072.8      68.131028      1222.934       25454.901    
     76600  -3570005       -3570069        63.987574      1148.5601      28966.911    
     76700  -3570005.2     -3570069.1      63.90833       1147.1377      26596.344    
     76800  -3570005.2     -3570069.4      64.150045      1151.4764      26055.931    
     76900  -3570005.1     -3570068        62.915654      1129.3194      28994.244    
     77000  -3570004.8     -3570073        68.137867      1223.0568      30859.761    
     77100  -3570004.5     -3570070        65.485969      1175.4559      26811.538    
     77200  -3570004       -3570068.2      64.25153       1153.2981      26137.824    
     77300  -3570003.3     -3570067.7      64.345114      1154.9779      27342.204    
     77400  -3570002.6     -3570069.5      66.839119      1199.7446      29774.239    
     77500  -3570001.8     -3570068.9      67.155583      1205.4251      23139.734    
     77600  -3570000.9     -3570064.2      63.257956      1135.4637      27553.036    
     77700  -3570000       -3570069.5      69.534513      1248.1262      28547.741    
     77800  -3569999       -3570068.8      69.794817      1252.7986      29410.763    
     77900  -3569998.2     -3570065.7      67.520945      1211.9832      30702.787    
     78000  -3569997.4     -3570063.9      66.446702      1192.7008      25359.058    
     78100  -3569996.9     -3570066        69.11879       1240.6641      27646.318    
     78200  -3569996.5     -3570066.8      70.302814      1261.917       33589.733    
     78300  -3569996.2     -3570069.2      72.996418      1310.2665      26276.428    
     78400  -3569996.1     -3570061.7      65.532389      1176.2892      23895.364    
     78500  -3569996.3     -3570062.3      66.02062       1185.0528      33407.701    
     78600  -3569996.7     -3570064.3      67.601504      1213.4292      32519.461    
     78700  -3569997.6     -3570067        69.428738      1246.2276      29591.361    
     78800  -3569999.1     -3570070.5      71.433935      1282.2204      25043.96     
     78900  -3570001.1     -3570066.6      65.484047      1175.4214      29532.184    
     79000  -3570003       -3570065.4      62.415246      1120.3373      30516.545    
     79100  -3570004.5     -3570072.2      67.725874      1215.6616      26325.037    
     79200  -3570005.5     -3570071.8      66.333831      1190.6748      26648.605    
     79300  -3570006.2     -3570070.6      64.472048      1157.2563      29351.622    
     79400  -3570006.5     -3570070.5      63.984572      1148.5063      29319.511    
     79500  -3570006.7     -3570070.5      63.786824      1144.9567      22587.269    
     79600  -3570006.6     -3570068.4      61.778499      1108.9078      25214.922    
     79700  -3570006.3     -3570072        65.763711      1180.4413      33965.753    
     79800  -3570005.8     -3570073.3      67.479628      1211.2416      26858.814    
     79900  -3570005.2     -3570070.9      65.728551      1179.8102      23097.341    
     80000  -3570004.4     -3570071.2      66.850629      1199.9512      32105.376    
     80100  -3570003.4     -3570068.4      64.964899      1166.1029      26078.396    
     80200  -3570002.4     -3570069.1      66.761849      1198.3576      22404.117    
     80300  -3570001.3     -3570067.7      66.343409      1190.8467      25191.771    
     80400  -3570000.3     -3570065.3      64.988425      1166.5251      28973.556    
     80500  -3569999.5     -3570068.1      68.632164      1231.9293      27743.084    
     80600  -3569998.8     -3570067.6      68.777492      1234.5379      26589.845    
     80700  -3569998.3     -3570065.6      67.226115      1206.6911      31195.017    
     80800  -3569998       -3570069.3      71.244085      1278.8126      30166.044    
     80900  -3569997.9     -3570067        69.086672      1240.0876      25095.232    
     81000  -3569997.9     -3570067.5      69.604429      1249.3812      30141.562    
     81100  -3569998       -3570070.9      72.875055      1308.0881      29619.396    
     81200  -3569998.2     -3570068.5      70.249202      1260.9547      28689.742    
     81300  -3569998.6     -3570067.9      69.288245      1243.7058      24989.658    
     81400  -3569999.1     -3570066.1      67.016936      1202.9364      26699.397    
     81500  -3569999.7     -3570069.6      69.883754      1254.395       29634.061    
     81600  -3570000.4     -3570070.1      69.792467      1252.7564      30373.657    
     81700  -3570001.1     -3570070.1      69.000087      1238.5334      27129.54     
     81800  -3570001.9     -3570070.4      68.541923      1230.3095      28007.448    
     81900  -3570002.6     -3570068.8      66.202633      1188.3199      27927.129    
     82000  -3570003.5     -3570069.3      65.824102      1181.5253      28107.787    
     82100  -3570004.3     -3570068.3      63.981744      1148.4555      25156.416    
     82200  -3570005.5     -3570076.4      70.947193      1273.4835      26311.677    
     82300  -3570006.9     -3570072.5      65.612517      1177.7274      26339.164    
     82400  -3570009       -3570072.3      63.359915      1137.2938      28398.599    
     82500  -3570011.2     -3570076.6      65.365404      1173.2918      27146.356    
     82600  -3570013       -3570073.4      60.428319      1084.6724      28682.64     
     82700  -3570013.9     -3570077.1      63.197562      1134.3796      25899.453    
     82800  -3570014.1     -3570073.9      59.853029      1074.3461      26305.397    
     82900  -3570013.9     -3570074.9      61.076355      1096.3045      25251.633    
     83000  -3570013.4     -3570076.3      62.96636       1130.2296      28460.101    
     83100  -3570012.6     -3570073.5      60.876111      1092.7102      24499.11     
     83200  -3570011.6     -3570073.2      61.571399      1105.1904      21680.607    
     83300  -3570010.5     -3570073        62.576726      1123.2358      25175.582    
     83400  -3570009.3     -3570073.7      64.412893      1156.1945      30159.263    
     83500  -3570008       -3570072        63.95748       1148.02        23533.14     
     83600  -3570006.8     -3570069.3      62.438933      1120.7624      27936.736    
     83700  -3570005.8     -3570071.6      65.860582      1182.1801      29523.637    
     83800  -3570004.8     -3570072.6      67.805914      1217.0983      28305.725    
     83900  -3570003.9     -3570071.9      68.052105      1221.5174      25803.265    
     84000  -3570003       -3570069.9      66.864302      1200.1966      28612.284    
     84100  -3570002.2     -3570069.2      66.944433      1201.635       29947.637    
     84200  -3570001.5     -3570067.4      65.900639      1182.8991      28466.753    
     84300  -3570000.8     -3570069.4      68.620236      1231.7152      27522.583    
     84400  -3570000.1     -3570068.8      68.622826      1231.7617      25417.021    
     84500  -3569999.6     -3570068.3      68.689049      1232.9504      28267.903    
     84600  -3569999.1     -3570065.2      66.090921      1186.3146      30508.197    
     84700  -3569998.7     -3570068.5      69.770485      1252.3619      25108.321    
     84800  -3569998.4     -3570065.6      67.182173      1205.9023      28737.245    
     84900  -3569998.3     -3570066.2      67.959123      1219.8484      26376.333    
     85000  -3569998.2     -3570067.4      69.175351      1241.6794      30224.73     
     85100  -3569998.3     -3570065.6      67.293672      1207.9037      34784.159    
     85200  -3569998.5     -3570068.3      69.774909      1252.4413      28407.218    
     85300  -3569999       -3570066.3      67.328741      1208.5332      27838.218    
     85400  -3569999.7     -3570069.5      69.779612      1252.5257      26395.954    
     85500  -3570000.7     -3570065.3      64.586809      1159.3162      31415.146    
     85600  -3570002.1     -3570071.3      69.252276      1243.0602      28536.393    
     85700  -3570003.6     -3570067.9      64.304347      1154.2461      29446.302    
     85800  -3570005       -3570071        65.946305      1183.7188      28501.919    
     85900  -3570006.2     -3570069.4      63.236833      1135.0845      26640.152    
     86000  -3570007       -3570068.5      61.497801      1103.8694      30815.677    
     86100  -3570007.4     -3570068.7      61.38654       1101.8723      33610.634    
     86200  -3570007.5     -3570071.8      64.361834      1155.278       23371.916    
     86300  -3570007.4     -3570070.3      62.890212      1128.8628      25377.856    
     86400  -3570007.1     -3570072.4      65.266225      1171.5116      32027.915    
     86500  -3570006.6     -3570072.5      65.820964      1181.469       28853.181    
     86600  -3570006       -3570072.1      66.131223      1187.0381      22710.407    
     86700  -3570005.3     -3570070.3      65.012683      1166.9606      29346.317    
     86800  -3570004.5     -3570070.1      65.569906      1176.9626      31938.159    
     86900  -3570003.7     -3570070        66.277693      1189.6672      31562.94     
     87000  -3570002.9     -3570068.8      65.904668      1182.9715      25237.334    
     87100  -3570002.3     -3570067.1      64.800124      1163.1452      25880.411    
     87200  -3570001.7     -3570065.9      64.202735      1152.4222      34807.439    
     87300  -3570001.3     -3570070.4      69.097492      1240.2818      30150.522    
     87400  -3570001       -3570065.2      64.158727      1151.6323      25663.209    
     87500  -3570000.8     -3570065.8      65.034163      1167.3461      26219.917    
     87600  -3570000.6     -3570067.8      67.22666       1206.7009      31050.722    
     87700  -3570000.5     -3570069.9      69.466896      1246.9125      32230.277    
     87800  -3570000.4     -3570068        67.583531      1213.1066      24509.364    
     87900  -3570000.4     -3570066.1      65.71937       1179.6454      22882.424    
     88000  -3570000.4     -3570065.7      65.300654      1172.1296      31153.874    
     88100  -3570000.5     -3570064.3      63.801667      1145.2231      28889.626    
     88200  -3570000.6     -3570068.6      67.984785      1220.309       29678.209    
     88300  -3570000.8     -3570067.4      66.661671      1196.5595      30632.396    
[...]
    430100  -3570104.7     -3570121.5      16.808499      301.70814      2673.6567    
    430200  -3570104.5     -3570121.3      16.76415       300.91208     -986.57406    
    430300  -3570104.3     -3570121.5      17.163251      308.07585     -161.91671    
    430400  -3570104.1     -3570121.4      17.268473      309.96455     -1208.0716    
    430500  -3570104       -3570121.2      17.226921      309.2187      -478.96785    
    430600  -3570103.8     -3570121        17.150591      307.84859      743.47802    
    430700  -3570103.8     -3570120.3      16.576776      297.54877     -325.66236    
    430800  -3570103.7     -3570120        16.321502      292.96668      898.78596    
    430900  -3570103.7     -3570120.3      16.603532      298.02903     -283.39918    
    431000  -3570103.6     -3570121.6      17.938533      321.99195      2261.4758    
    431100  -3570103.7     -3570121        17.281402      310.19662     -2526.3688    
    431200  -3570103.7     -3570121.1      17.349786      311.4241       816.57116    
    431300  -3570103.7     -3570120.5      16.732143      300.33757      597.70068    
    431400  -3570103.8     -3570120.9      17.039443      305.85353     -579.99981    
    431500  -3570103.9     -3570120.9      17.010179      305.32825     -354.18457    
    431600  -3570103.9     -3570121.2      17.288045      310.31587     -726.48485    
    431700  -3570104       -3570121.6      17.595756      315.83919      2325.5532    
    431800  -3570104.1     -3570120.9      16.780573      301.20687     -1963.5659    
    431900  -3570104.2     -3570121.2      17.023618      305.56947      1653.2684    
    432000  -3570104.3     -3570121        16.773782      301.08498     -1202.5794    
    432100  -3570104.4     -3570121.1      16.727008      300.2454       1335.9304    
    432200  -3570104.5     -3570121.4      16.873966      302.88325     -3411.4174    
    432300  -3570104.6     -3570121.8      17.215522      309.01409      2660.9539    
    432400  -3570104.7     -3570120.8      16.121751      289.38119      746.8568     
    432500  -3570104.9     -3570121.1      16.190684      290.61852      816.19143    
    432600  -3570105       -3570121.8      16.822519      301.9598      -2910.2872    
    432700  -3570105.2     -3570121.1      15.962116      286.51578      821.87062    
    432800  -3570105.3     -3570121.7      16.353694      293.5445       3609.0226    
    432900  -3570105.6     -3570121.3      15.631494      280.5812      -1621.0086    
    433000  -3570105.7     -3570121.3      15.579735      279.65215     -136.73442    
    433100  -3570105.9     -3570122.2      16.286189      292.33281     -1034.0303    
    433200  -3570106       -3570121.7      15.672196      281.31181      3850.8575    
    433300  -3570106.1     -3570121.2      15.051239      270.16578     -2828.7111    
    433400  -3570106.1     -3570122.3      16.220691      291.15714      1584.0412    
    433500  -3570106       -3570121.5      15.418913      276.76544      200.94942    
    433600  -3570105.9     -3570122.3      16.415448      294.65297      867.75036    
    433700  -3570105.6     -3570121.4      15.766499      283.00451     -836.20496    
    433800  -3570105.3     -3570121.4      16.091549      288.83908      385.4165     
    433900  -3570104.9     -3570120.9      16.01629       287.4882       1796.8605    
    434000  -3570104.5     -3570121        16.413476      294.61757     -1600.5018    
    434100  -3570104.2     -3570121.2      16.920234      303.71375     -421.85836    
    434200  -3570104       -3570121.2      17.177887      308.33855     -653.34153    
    434300  -3570103.9     -3570121.3      17.40329       312.38447      1221.4863    
    434400  -3570103.7     -3570120        16.247251      291.63389     -1054.3256    
    434500  -3570103.6     -3570120.5      16.832255      302.13454      1225.4       
    434600  -3570103.6     -3570119.9      16.375146      293.92957      404.01269    
    434700  -3570103.5     -3570120        16.463329      295.51243     -827.04029    
    434800  -3570103.5     -3570120.3      16.773233      301.07512      447.09247    
    434900  -3570103.5     -3570120.4      16.908406      303.50145      548.6863     
    435000  -3570103.6     -3570120.1      16.514934      296.43873      59.65358     
    435100  -3570103.6     -3570120        16.312063      292.79724     -2053.5007    
    435200  -3570103.7     -3570120.6      16.855193      302.54629      2099.7104    
    435300  -3570103.9     -3570121.4      17.494706      314.02537     -546.664      
    435400  -3570104.1     -3570121.6      17.468057      313.54703      2447.5221    
    435500  -3570104.3     -3570120.9      16.635909      298.6102      -3489.1745    
    435600  -3570104.6     -3570121.4      16.775522      301.11621      1278.3858    
    435700  -3570104.9     -3570120.9      16.004376      287.27434     -976.69486    
    435800  -3570105.2     -3570121.3      16.108325      289.14019      1126.1269    
    435900  -3570105.5     -3570122        16.447106      295.22122      217.84003    
    436000  -3570105.7     -3570121.7      15.99795       287.15899     -1491.6853    
    436100  -3570105.9     -3570121.9      16.013988      287.44687      1180.5133    
    436200  -3570105.9     -3570121.3      15.399238      276.41227      129.64155    
    436300  -3570105.9     -3570122        16.069748      288.44776      3533.8486    
    436400  -3570106       -3570122.1      16.110787      289.18439     -3503.7178    
    436500  -3570105.8     -3570121.1      15.326278      275.10265     -28.650703    
    436600  -3570105.6     -3570121.5      15.881581      285.0702       1299.937     
    436700  -3570105.4     -3570121.4      15.987881      286.97827      3117.1352    
    436800  -3570105.2     -3570121.4      16.193573      290.67038     -3454.5097    
    436900  -3570105       -3570121.2      16.209877      290.96304     -728.93516    
    437000  -3570104.8     -3570121.5      16.633764      298.57169      1441.3143    
    437100  -3570104.7     -3570121.2      16.449025      295.25567      687.77965    
    437200  -3570104.6     -3570121.1      16.449901      295.2714      -507.52282    
    437300  -3570104.5     -3570121.4      16.877178      302.94092      24.412324    
    437400  -3570104.5     -3570120.8      16.331686      293.14946     -322.88448    
    437500  -3570104.4     -3570120.6      16.219293      291.13204      796.26979    
    437600  -3570104.3     -3570121.3      16.991657      304.99578     -152.68404    
    437700  -3570104.3     -3570119.8      15.491877      278.07512      646.70001    
    437800  -3570104.2     -3570120.5      16.337412      293.25225      562.07181    
    437900  -3570104.1     -3570121.5      17.314085      310.78327     -900.88125    
    438000  -3570104.1     -3570121.1      16.995056      305.05678     -1046.1844    
    438100  -3570104       -3570121.2      17.252379      309.67567      13.521662    
    438200  -3570103.9     -3570120.3      16.42218       294.77381      1786.1006    
    438300  -3570103.8     -3570120.9      17.102087      306.97797     -2753.2293    
    438400  -3570103.7     -3570120.4      16.619059      298.30775     -60.158595    
    438500  -3570103.7     -3570120.4      16.619191      298.31011      422.35625    
    438600  -3570103.6     -3570120.5      16.850139      302.45557      4307.9392    
    438700  -3570103.5     -3570120.3      16.775974      301.12433     -1212.3105    
    438800  -3570103.5     -3570119.9      16.48382       295.88023     -2613.4536    
    438900  -3570103.5     -3570121.2      17.661254      317.01486      1882.432     
    439000  -3570103.5     -3570120.2      16.789022      301.35853     -575.16203    
    439100  -3570103.5     -3570119.9      16.369006      293.81936      2821.4561    
    439200  -3570103.6     -3570120.7      17.068572      306.37637     -2597.8672    
    439300  -3570103.8     -3570120.6      16.858951      302.61374     -226.12422    
    439400  -3570104       -3570120.6      16.654993      298.95275     -51.490245    
    439500  -3570104.2     -3570120.5      16.286613      292.34042      469.06337    
    439600  -3570104.5     -3570121.5      17.012369      305.36755      1267.7874    
    439700  -3570104.7     -3570121.6      16.861892      302.66654     -1565.3019    
    439800  -3570105       -3570120.8      15.812688      283.83359      688.32402    
    439900  -3570105.2     -3570120.3      15.085786      270.7859       650.37801    
    440000  -3570105.4     -3570122.1      16.759104      300.82152      205.30807    
    440100  -3570105.5     -3570121.4      15.922063      285.79684      7.7126714    
    440200  -3570105.6     -3570122        16.400747      294.3891      -2390.2702    
    440300  -3570105.6     -3570122.4      16.783343      301.2566       1780.3344    
    440400  -3570105.6     -3570122.5      16.877453      302.94584      26.086269    
    440500  -3570105.5     -3570121.7      16.17419       290.32246     -308.28007    
    440600  -3570105.3     -3570121.2      15.905929      285.50725     -1634.019     
    440700  -3570105.1     -3570121.5      16.426491      294.85119      1421.9004    
    440800  -3570104.8     -3570121.2      16.412042      294.59183     -1499.3232    
    440900  -3570104.3     -3570120.7      16.334235      293.19522      860.71965    
    441000  -3570103.9     -3570120.8      16.861797      302.66481     -77.53671     
    441100  -3570103.6     -3570121.3      17.726868      318.19262      24.217604    
    441200  -3570103.3     -3570120.2      16.844801      302.35975     -1650.321     
    441300  -3570103.2     -3570120.9      17.683426      317.41285      312.5371     
    441400  -3570103.1     -3570121.5      18.394357      330.17387      788.08818    
    441500  -3570103.1     -3570120.8      17.644552      316.71507      28.675806    
    441600  -3570103.2     -3570120.1      16.926284      303.82235      128.18602    
    441700  -3570103.2     -3570121.4      18.138289      325.57751     -703.15557    
    441800  -3570103.3     -3570120        16.684313      299.47903      663.54761    
    441900  -3570103.5     -3570120.9      17.415614      312.60568     -548.12449    
    442000  -3570103.6     -3570121        17.397016      312.27187     -812.01456    
    442100  -3570103.8     -3570120        16.241147      291.52432      233.17735    
    442200  -3570104       -3570121.2      17.213803      308.98324      2255.0985    
    442300  -3570104.2     -3570121.3      17.096062      306.86982     -1744.9269    
    442400  -3570104.4     -3570120.1      15.682038      281.48845     -937.12363    
    442500  -3570104.6     -3570121.3      16.755091      300.74948      3.612014     
    442600  -3570104.7     -3570121.3      16.533968      296.78037      2971.6786    
    442700  -3570104.9     -3570120.6      15.669322      281.26022     -794.84868    
    442800  -3570105       -3570120.8      15.816936      283.90985     -2377.8332    
    442900  -3570105.1     -3570121.5      16.47016       295.63505      847.68138    
    443000  -3570105.1     -3570120.9      15.856347      284.61727      2070.8801    
    443100  -3570105.1     -3570120.7      15.614218      280.2711      -537.7951     
    443200  -3570105       -3570121.6      16.531399      296.73426     -1276.2241    
    443300  -3570105       -3570121.3      16.325217      293.03335      1417.621     
    443400  -3570104.8     -3570120.9      16.12634       289.46357     -505.52053    
    443500  -3570104.5     -3570120.6      16.148787      289.86648     -556.73646    
    443600  -3570104       -3570120.8      16.776285      301.1299      -307.81504    
    443700  -3570103.4     -3570120.7      17.291206      310.37261      878.36521    
    443800  -3570103       -3570120.5      17.508258      314.26863     -660.10903    
    443900  -3570102.7     -3570119.3      16.635723      298.60686      571.01737    
    444000  -3570102.5     -3570119.9      17.396659      312.26546      1536.8997    
    444100  -3570102.5     -3570120.4      17.964754      322.46262     -1064.5827    
    444200  -3570102.5     -3570119.8      17.306754      310.65168      956.25231    
    444300  -3570102.6     -3570120.1      17.552235      315.05801     -541.36382    
    444400  -3570102.7     -3570119.7      16.98853       304.93965     -197.18037    
    444500  -3570102.9     -3570120.4      17.552184      315.05708     -554.36066    
    444600  -3570103.1     -3570120.4      17.235606      309.3746       1466.2491    
    444700  -3570103.4     -3570120.8      17.442961      313.09657     -219.25579    
    444800  -3570103.7     -3570121        17.311131      310.73025     -565.022      
    444900  -3570103.9     -3570121        17.105023      307.03067     -1437.6507    
    445000  -3570104.1     -3570120.5      16.36524       293.75175      565.7895     
    445100  -3570104.3     -3570121.2      16.8486        302.42794      1315.6214    
    445200  -3570104.5     -3570120.7      16.202643      290.83318     -238.10321    
    445300  -3570104.6     -3570121.7      17.044754      305.94885     -879.30568    
    445400  -3570104.8     -3570121.3      16.569279      297.4142      -1691.4004    
    445500  -3570104.8     -3570121.3      16.523429      296.59121      4217.6471    
    445600  -3570104.8     -3570120.2      15.412534      276.65093     -1655.0657    
    445700  -3570104.8     -3570120.5      15.704196      281.88619      141.63366    
    445800  -3570104.8     -3570121.6      16.848107      302.4191      -147.78182    
    445900  -3570104.8     -3570121.8      17.053609      306.1078      -1811.8675    
    446000  -3570104.7     -3570121.5      16.740274      300.48352      2033.8937    
    446100  -3570104.6     -3570121.2      16.545779      296.99238     -836.34249    
    446200  -3570104.6     -3570121        16.451572      295.3014       98.941862    
    446300  -3570104.4     -3570121        16.588633      297.76159     -2563.771     
    446400  -3570104.3     -3570121        16.730707      300.31179      2488.5985    
    446500  -3570104.1     -3570120.4      16.329938      293.1181       613.82888    
    446600  -3570103.8     -3570121.2      17.417504      312.63962     -1150.9247    
    446700  -3570103.3     -3570120        16.645914      298.78979     -718.1472     
    446800  -3570102.8     -3570120.3      17.519268      314.46625      1113.3128    
    446900  -3570102.3     -3570119.6      17.292189      310.39024      1083.6138    
    447000  -3570102       -3570119.8      17.864075      320.65544     -1957.1315    
    447100  -3570101.8     -3570119.5      17.676786      317.29366     -1302.1739    
    447200  -3570101.8     -3570119.1      17.346364      311.36267      968.35653    
    447300  -3570101.8     -3570120.4      18.566383      333.2617       344.97861    
    447400  -3570101.9     -3570119.6      17.638229      316.60157     -390.71457    
    447500  -3570102.1     -3570119.5      17.397091      312.27321     -313.15742    
    447600  -3570102.4     -3570120.3      17.902265      321.34095     -463.05891    
    447700  -3570102.6     -3570120.5      17.872666      320.80965      196.96431    
    447800  -3570102.9     -3570121.3      18.403478      330.33759     -353.0572     
    447900  -3570103.2     -3570119.8      16.670002      299.22216      171.62796    
    448000  -3570103.4     -3570120.3      16.938254      304.0372      -366.72011    
    448100  -3570103.6     -3570120.4      16.825595      302.015       -1856.5371    
    448200  -3570103.8     -3570120.4      16.637628      298.64105      3846.3325    
    448300  -3570103.9     -3570121.3      17.368112      311.75304      965.34207    
    448400  -3570104.1     -3570121.1      17.006063      305.25435      76.194574    
    448500  -3570104.2     -3570120.6      16.427768      294.87411     -3994.0887    
    448600  -3570104.3     -3570121.1      16.757637      300.79518      3491.731     
    448700  -3570104.4     -3570120.5      16.136464      289.64529      1226.1409    
    448800  -3570104.6     -3570120.9      16.281022      292.24007      512.45727    
    448900  -3570104.6     -3570121.2      16.604755      298.05099     -2530.2918    
    449000  -3570104.6     -3570120.6      15.993323      287.07594      841.47806    
    449100  -3570104.7     -3570121.3      16.641354      298.70794      1546.2492    
    449200  -3570104.7     -3570121.7      16.93923       304.05473     -885.53394    
    449300  -3570104.7     -3570121.9      17.200332      308.74145      230.99345    
    449400  -3570104.8     -3570120.6      15.873604      284.92701     -2607.9431    
    449500  -3570104.7     -3570121.5      16.797878      301.5175       3424.6268    
    449600  -3570104.6     -3570120.4      15.787495      283.38138     -1587.9809    
    449700  -3570104.5     -3570120.5      16.02566       287.65639      818.26188    
    449800  -3570104.3     -3570121.5      17.179136      308.36097     -964.61627    
    449900  -3570104       -3570120.8      16.812451      301.77907      1489.2508    
    450000  -3570103.7     -3570120.7      17.039733      305.85873     -118.03211    
Loop time of 4923.87 on 72 procs for 50000 steps with 432 atoms

Performance: 1.755 ns/day, 13.677 hours/ns, 10.155 timesteps/s, 4.387 katom-step/s
86.7% CPU use with 72 MPI tasks x 1 OpenMP threads

MPI task timing breakdown:
Section |  min time  |  avg time  |  max time  |%varavg| %total
---------------------------------------------------------------
Pair    | 3630.3     | 3935.7     | 4333.5     | 313.5 | 79.93
Bond    | 0.019435   | 0.029278   | 0.0421     |   2.5 |  0.00
Neigh   | 0.029034   | 0.031396   | 0.033858   |   0.8 |  0.00
Comm    | 588.19     | 986        | 1291.4     | 626.4 | 20.02
Output  | 0.03975    | 0.040265   | 0.047953   |   0.5 |  0.00
Modify  | 1.7264     | 1.7736     | 1.8378     |   1.9 |  0.04
Other   |            | 0.3243     |            |       |  0.01

Nlocal:              6 ave           9 max           3 min
Histogram: 1 8 0 14 0 25 16 0 7 1
Nghost:        436.139 ave         447 max         426 min
Histogram: 4 6 7 7 15 11 9 7 4 2
Neighs:              0 ave           0 max           0 min
Histogram: 72 0 0 0 0 0 0 0 0 0
FullNghs:      579.389 ave         886 max         287 min
Histogram: 1 8 0 14 20 5 16 0 7 1

Total # of neighbors = 41716
Ave neighs/atom = 96.564815
Ave special neighs/atom = 0
Neighbor list builds = 855
Dangerous builds = 0
System init for write_restart ...
                                  
================================= 
Global information about the job: 
================================= 
  
Job owner: thuss(30998)
Job name:  MD_short
Node list: ravc3355
Job start: Thu Feb 23 17:01:19 CET 2023
Job end:   Fri Feb 24 05:37:54 CET 2023
Work dir:  /ptmp/thuss/naps/sampl_compar/melt_quench/0/./
Command:   /raven/ptmp/thuss/naps/sampl_compar/melt_quench/0/geom.job
  
  
  
==========================================================================================
Information on jobsteps (Note: MaxRSS/AveRSS is the maximum/average over all 
tasks of the per-task memory high-water marks; cf. "man sacct"): 
==========================================================================================
  
JobID            JobName NNodes NTasks  NCPUS        0.00M        0.00M    Elapsed ExitCode
------------- ---------- ------ ------ ------ ------------ ------------ ---------- --------
4275886         MD_short      1           144                             12:36:35      0:0
4275886.0            lmp      1     72     72      115.33M      110.67M   12:36:28      0:0
  
Maximum memory per node: 8.707203 GB (defined as MaxRSS*Ntasks/NNodes)
CPU utilization: 100.0 %
  
