LAMMPS (15 Sep 2022)
  using 1 OpenMP thread(s) per MPI task
Reading data file ...
  orthogonal box = (0 0 0) to (20.771073 20.771073 21.231424)
  3 by 4 by 6 MPI processor grid
  reading atoms ...
  432 atoms
Finding 1-2 1-3 1-4 neighbors ...
  special bond factors lj:    0        0        0       
  special bond factors coul:  0        0        0       
     0 = max # of 1-2 neighbors
     0 = max # of 1-3 neighbors
     0 = max # of 1-4 neighbors
     1 = max # of special neighbors
  special bonds CPU = 0.003 seconds
  read_data CPU = 0.022 seconds
New timer settings: style=normal  mode=nosync  timeout=00:00:00
162 atoms in group Li_atoms
54 atoms in group P_atoms
216 atoms in group S_atoms
Neighbor list info ...
  update: every = 1 steps, delay = 0 steps, check = yes
  max neighbors/atom: 2000, page size: 100000
  master list distance cutoff = 8
  ghost atom cutoff = 8
  binsize = 4, bins = 6 6 6
  1 neighbor lists, perpetual/occasional/extra = 1 0 0
  (1) pair quip, perpetual
      attributes: full, newton on
      pair build: full/bin
      stencil: full/bin/3d
      bin: standard
Setting up Verlet run ...
  Unit style    : metal
  Current step  : 0
  Time step     : 0.002
  Walltime left : 23:59:54.22
Per MPI rank memory allocation (min/avg/max) = 8.036 | 8.037 | 8.037 Mbytes
   Step         TotEng         PotEng         KinEng          Temp          Press     
         0  -3570136.6     -3570136.6      0              0              14580.375    
       100  -3570136.6     -3570136.9      0.32560387     5.8445039     -4942.9277    
       200  -3570136.5     -3570137.6      1.0157116      18.231757      8165.0126    
       300  -3570136.5     -3570137.6      1.1259646      20.210768      4689.2908    
       400  -3570136.4     -3570137        0.57348022     10.293819     -2299.7754    
       500  -3570136.4     -3570136.5      0.14493058     2.6014658      13080.16     
       600  -3570136.3     -3570136.8      0.48978334     8.7914821     -4184.511     
       700  -3570136.2     -3570137.6      1.3682228      24.55924       7605.7355    
       800  -3570136.1     -3570137.9      1.7765756      31.889066      5452.4429    
       900  -3570136       -3570137.1      1.1200843      20.105219     -4111.8429    
      1000  -3570135.9     -3570136.4      0.50019713     8.978407       15548.102    
      1100  -3570135.8     -3570136.4      0.66340163     11.907885     -6787.829     
      1200  -3570135.7     -3570137.5      1.7852563      32.044881      9604.6924    
      1300  -3570135.5     -3570137.9      2.3563257      42.295427      4391.4244    
      1400  -3570135.4     -3570136.9      1.4589141      26.187125     -5235.175     
      1500  -3570135.2     -3570135.7      0.52106905     9.3530524      18188.229    
      1600  -3570135.1     -3570135.4      0.32929029     5.9106741     -10018.907    
      1700  -3570134.9     -3570136.7      1.7952219      32.223762      13855.437    
      1800  -3570134.7     -3570137.3      2.5719284      46.165438      1178.764     
      1900  -3570134.5     -3570136.2      1.6943389      30.412939     -2802.3039    
      2000  -3570134.2     -3570134.7      0.44286686     7.9493437      17194.625    
      2100  -3570134       -3570134.5      0.4889553      8.7766191     -8648.1446    
      2200  -3570133.7     -3570136.3      2.5764444      46.246499      12190.274    
      2300  -3570133.5     -3570137.7      4.2109859      75.58609       3504.2651    
      2400  -3570133.2     -3570136.3      3.0987836      55.622351     -7168.8832    
      2500  -3570132.9     -3570134.4      1.5415524      27.67046       21619.408    
      2600  -3570132.5     -3570133.8      1.3434235      24.114098     -12633.203    
      2700  -3570132.2     -3570136        3.8864796      69.761287      13555.282    
      2800  -3570131.8     -3570137.4      5.6052406      100.61259      4437.9209    
      2900  -3570131.3     -3570134.5      3.1792         57.065804     -11022.571    
      3000  -3570130.9     -3570131.5      0.60454972     10.851509      28609.806    
      3100  -3570130.4     -3570131.1      0.74092086     13.299335     -17627.891    
      3200  -3570129.8     -3570135.8      5.939175       106.60663      16421.123    
      3300  -3570129.3     -3570137        7.6565159      137.43245      3448.4618    
      3400  -3570128.7     -3570133.1      4.3679337      78.403261     -12512.503    
      3500  -3570128       -3570129.4      1.3281672      23.840253      30691.82     
      3600  -3570127.4     -3570131        3.5733469      64.140637     -17127.258    
      3700  -3570126.7     -3570137.5      10.760947      193.15617      10244.494    
      3800  -3570126       -3570135.6      9.6411329      173.0558       11047.124    
      3900  -3570125.1     -3570127.1      2.0598231      36.973283     -15440.276    
      4000  -3570124.1     -3570125.2      1.021701       18.339264      33042.543    
      4100  -3570123.2     -3570130.8      7.6315752      136.98477     -9744.7789    
      4200  -3570122.3     -3570135.5      13.218209      237.26338     -5960.0451    
      4300  -3570121.2     -3570131.1      9.8815654      177.3715       31127.805    
      4400  -3570120       -3570121.7      1.61667        29.018802     -26185.455    
      4500  -3570118.9     -3570130.9      11.946254      214.43212      26369.192    
      4600  -3570117.7     -3570136.9      19.223128      345.05009      2878.9092    
      4700  -3570116.4     -3570124.3      7.8812238      141.4659      -25408.221    
      4800  -3570114.9     -3570117.2      2.2206132      39.859424      51066.965    
      4900  -3570113.5     -3570122.9      9.4187352      169.06382     -22195.207    
      5000  -3570112.1     -3570131.1      18.978278      340.65509     -2712.9421    
      5100  -3570110.4     -3570122.1      11.646904      209.05886      39345.111    
      5200  -3570108.7     -3570115.4      6.6612046      119.56687     -31423.011    
      5300  -3570107.2     -3570133.7      26.548718      476.54251      16168.027    
      5400  -3570105.4     -3570130        24.549568      440.65829      26786.546    
      5500  -3570103.4     -3570108        4.5260424      81.241271     -34640.468    
      5600  -3570101.7     -3570130.1      28.352514      508.92017      29062.186    
      5700  -3570099.9     -3570132.9      32.975839      591.90763      12615.6      
      5800  -3570097.8     -3570102.2      4.3943334      78.877129     -33390.997    
      5900  -3570095.9     -3570125.1      29.134187      522.951        37243.808    
      6000  -3570094       -3570131.2      37.144476      666.73358      14842.957    
      6100  -3570091.9     -3570097.5      5.5252479      99.176746     -37343.159    
      6200  -3570090.1     -3570125.5      35.427245      635.90973      32874.211    
      6300  -3570088.3     -3570128.4      40.173676      721.10692      21591.576    
      6400  -3570086.2     -3570089.9      3.6874274      66.188352     -36225.236    
      6500  -3570084.6     -3570130        45.352391      814.0635       12632.685    
      6600  -3570082.9     -3570113.7      30.829526      553.38189      50934.453    
      6700  -3570081.1     -3570097.1      15.993837      287.08517     -29823.112    
      6800  -3570079.8     -3570115.8      35.933158      644.99074     -19162.549    
      6900  -3570078.4     -3570090.3      11.940911      214.33621      76043.72     
      7000  -3570077.5     -3570111.9      34.408284      617.61965     -17583.824    
      7100  -3570076.8     -3570096.1      19.387743      348.00489     -33705.62     
      7200  -3570076.3     -3570104.4      28.135478      505.02444      62772.174    
      7300  -3570076.1     -3570127.7      51.624143      926.6398       3674.3076    
      7400  -3570075.9     -3570086.6      10.661306      191.36764     -32436.744    
      7500  -3570076.3     -3570118.3      41.940231      752.81612      30959.432    
      7600  -3570076.8     -3570122.4      45.620566      818.87716      32836.652    
      7700  -3570077.3     -3570093        15.732894      282.40132     -24736.086    
      7800  -3570078.1     -3570119        40.858673      733.40244     -334.42849    
      7900  -3570078.9     -3570099.9      20.993168      376.82184      57386.477    
      8000  -3570079.9     -3570104.8      24.869576      446.40235     -18197.038    
      8100  -3570080.8     -3570110.6      29.772357      534.40599     -13924.983    
      8200  -3570081.6     -3570101        19.397767      348.18481      55543.524    
      8300  -3570082.4     -3570114.6      32.211409      578.18633     -6715.1036    
      8400  -3570082.8     -3570104.1      21.275538      381.89031     -21734.329    
      8500  -3570083.3     -3570108.7      25.415185      456.19589      44336.281    
      8600  -3570083.6     -3570122.1      38.589133      692.6648       10131.139    
      8700  -3570083.5     -3570100.7      17.256868      309.75624     -23443.17     
      8800  -3570083.4     -3570115.3      31.864252      571.95495      30278.602    
      8900  -3570083.1     -3570118.6      35.419709      635.77447      23567.149    
      9000  -3570082.5     -3570101.6      19.093958      342.73153     -21417.184    
      9100  -3570081.9     -3570116.1      34.198533      613.85467      19856.751    
      9200  -3570081       -3570111.3      30.325945      544.34274      30441.98     
      9300  -3570079.9     -3570101.4      21.440773      384.85624     -17410.081    
      9400  -3570078.9     -3570115.7      36.83202       661.12507      14784.689    
      9500  -3570077.6     -3570108.6      31.004336      556.51969      37756.405    
      9600  -3570076.3     -3570103        26.667645      478.67721     -12159.313    
      9700  -3570075.1     -3570109.3      34.171198      613.36402      2983.1023    
      9800  -3570073.8     -3570103.3      29.476287      529.0916       41593.219    
      9900  -3570072.6     -3570102.5      29.962981      537.82764     -3628.0118    
     10000  -3570071.5     -3570103.1      31.629719      567.74514     -958.98331    
     10100  -3570070.5     -3570102        31.517008      565.72201      37911.91     
     10200  -3570069.6     -3570104.7      35.020571      628.61004      8367.2231    
     10300  -3570069       -3570103        34.070458      611.55577     -2530.5186    
     10400  -3570068.5     -3570104.2      35.651697      639.93859      29031.857    
     10500  -3570068.3     -3570104.1      35.804051      642.67331      17784.34     
     10600  -3570068.2     -3570101.4      33.150803      595.0482      -487.23387    
     10700  -3570068.4     -3570105        36.543984      655.9549       22809.595    
     10800  -3570068.8     -3570103.9      35.104539      630.11724      20269.656    
     10900  -3570069.3     -3570101.9      32.576649      584.74228      2398.7665    
     11000  -3570069.9     -3570104.4      34.48849       619.05933      17852.154    
     11100  -3570070.6     -3570104.4      33.850236      607.60283      20502.524    
     11200  -3570071.3     -3570103.3      31.993542      574.27566      6706.3447    
     11300  -3570072       -3570106.2      34.2355        614.51822      14874.539    
     11400  -3570072.7     -3570105.9      33.208205      596.07855      21324.422    
     11500  -3570073.3     -3570104.7      31.444203      564.41517      9087.019     
     11600  -3570073.7     -3570106.5      32.743709      587.74097      15173.195    
     11700  -3570074.1     -3570105.2      31.132399      558.81838      17073.404    
     11800  -3570074.2     -3570106        31.804058      570.87448      11004.693    
     11900  -3570074.3     -3570105        30.7505        551.96339      14475.771    
     12000  -3570074.1     -3570104.9      30.795377      552.76893      17783.704    
     12100  -3570073.8     -3570106        32.173813      577.51148      9595.3902    
     12200  -3570073.3     -3570105.8      32.57358       584.6872       15006.291    
     12300  -3570072.5     -3570105.2      32.637219      585.8295       18129.284    
     12400  -3570071.7     -3570104.1      32.382747      581.26179      13448.92     
     12500  -3570070.7     -3570102.3      31.645548      568.02926      16305.849    
     12600  -3570069.5     -3570104.6      35.064193      629.39305      16742.985    
     12700  -3570068.3     -3570100.9      32.624655      585.60397      13665.543    
     12800  -3570067.1     -3570101.6      34.506389      619.3806       17728.671    
     12900  -3570065.8     -3570102.5      36.761053      659.85123      17022.813    
     13000  -3570064.5     -3570101        36.487751      654.94554      12542.401    
     13100  -3570063.3     -3570101.3      37.991958      681.94566      16676.224    
     13200  -3570062.2     -3570099.5      37.302689      669.57346      19117.48     
     13300  -3570061.2     -3570098.9      37.68701       676.47192      14796.236    
     13400  -3570060.4     -3570096.6      36.192263      649.6416       15878.033    
     13500  -3570059.7     -3570099.6      39.848836      715.27613      17735.706    
     13600  -3570059.2     -3570100        40.724131      730.98745      19152.682    
     13700  -3570059       -3570098.4      39.485815      708.76         15696.103    
     13800  -3570058.9     -3570097        38.092553      683.75131      15973.573    
     13900  -3570059       -3570097.8      38.845555      697.2675       20579.366    
     14000  -3570059.3     -3570096.4      37.144317      666.73072      17432.944    
     14100  -3570059.7     -3570096.8      37.010608      664.33068      15801.489    
     14200  -3570060.3     -3570098.1      37.818607      678.83405      20621.67     
     14300  -3570061       -3570098.5      37.517527      673.42975      15057.405    
     14400  -3570061.7     -3570098.6      36.943709      663.12986      16910.745    
     14500  -3570062.4     -3570101.1      38.771465      695.93761      16281.54     
     14600  -3570063       -3570101.2      38.203127      685.73608      15967.395    
     14700  -3570063.6     -3570099.8      36.282321      651.25812      17897.742    
     14800  -3570064       -3570100.3      36.30074       651.58875      16112.022    
     14900  -3570064.3     -3570100.7      36.393877      653.26053      15459.805    
     15000  -3570064.5     -3570100.5      35.95945       645.46267      15335.909    
     15100  -3570064.5     -3570102.5      37.991694      681.94092      16649.316    
     15200  -3570064.3     -3570101.3      36.927229      662.83404      19879.838    
     15300  -3570064       -3570100.7      36.692503      658.62077      16556.321    
     15400  -3570063.5     -3570100.1      36.569418      656.41144      14962.202    
     15500  -3570062.8     -3570100.6      37.841858      679.25139      16533.247    
     15600  -3570061.9     -3570097.8      35.863219      643.73534      17132.75     
     15700  -3570061       -3570098.4      37.431188      671.87998      17678.115    
     15800  -3570059.9     -3570099.3      39.43441       707.83729      19111.407    
     15900  -3570058.7     -3570098.7      40.022736      718.39758      16515.985    
     16000  -3570057.5     -3570097.3      39.802247      714.43986      18047.834    
     16100  -3570056.2     -3570096.7      40.440462      725.89567      17344.776    
     16200  -3570055       -3570095        39.955074      717.18307      18771.712    
     16300  -3570053.9     -3570096.1      42.184258      757.19634      20126.483    
     16400  -3570052.9     -3570093.5      40.582564      728.44635      19974.493    
     16500  -3570052       -3570094.4      42.38196       760.74503      19291.744    
     16600  -3570051.2     -3570092.7      41.474016      744.44768      18000.524    
     16700  -3570050.7     -3570093.8      43.141896      774.3857       19702.432    
     16800  -3570050.2     -3570092        41.742267      749.26271      19826.441    
     16900  -3570050       -3570093.8      43.796364      786.13322      17084.279    
     17000  -3570049.9     -3570091.9      41.939583      752.80449      19378.429    
     17100  -3570050       -3570092.8      42.729954      766.99144      21078.135    
     17200  -3570050.3     -3570095.2      44.935562      806.58153      16975.589    
     17300  -3570050.7     -3570093.7      43.034661      772.46085      18772.837    
     17400  -3570051.2     -3570093.7      42.532951      763.45528      20310.53     
     17500  -3570051.8     -3570091.4      39.674224      712.1419       18775.251    
     17600  -3570052.3     -3570093.5      41.209993      739.70854      19599.795    
     17700  -3570052.9     -3570094.8      41.867507      751.51073      18047.653    
     17800  -3570053.4     -3570095.6      42.161373      756.78556      17573.234    
     17900  -3570053.9     -3570094.6      40.713636      730.79907      19834.797    
     18000  -3570054.2     -3570095.3      41.043744      736.72441      18893.517    
     18100  -3570054.4     -3570094.6      40.140775      720.51635      18941.293    
     18200  -3570054.5     -3570097.1      42.558357      763.91131      15615.191    
     18300  -3570054.4     -3570095.8      41.409943      743.29759      22857.763    
     18400  -3570054.2     -3570096.4      42.230205      758.02108      18177.37     
     18500  -3570053.8     -3570093.8      40.080034      719.42607      12815.921    
     18600  -3570053.2     -3570094.1      40.915458      734.42171      21031.804    
     18700  -3570052.5     -3570093.3      40.807829      732.4898       22063.613    
     18800  -3570051.6     -3570093.6      41.998902      753.86925      15672.576    
     18900  -3570050.6     -3570093.9      43.313684      777.46925      20006.878    
     19000  -3570049.6     -3570094.4      44.877314      805.536        20876.688    
     19100  -3570048.5     -3570092.4      43.983919      789.49978      16478.598    
     19200  -3570047.4     -3570089.6      42.28244       758.95869      21534.206    
     19300  -3570046.3     -3570091.8      45.490467      816.54193      20141.781    
     19400  -3570045.2     -3570089.4      44.121506      791.96944      17935.579    
     19500  -3570044.2     -3570088        43.7117        784.61352      21810.541    
     19600  -3570043.4     -3570088.5      45.181297      810.9924       20779.919    
     19700  -3570042.6     -3570088.1      45.529259      817.23822      19204.371    
     19800  -3570041.9     -3570090        48.125786      863.8452       21768.367    
     19900  -3570041.4     -3570088.1      46.684415      837.97297      22990.023    
     20000  -3570041.1     -3570089.3      48.191881      865.0316       19983.669    
     20100  -3570040.9     -3570087.4      46.521751      835.05319      18335.695    
     20200  -3570040.9     -3570089.5      48.591275      872.20062      21876.747    
     20300  -3570041.1     -3570089.7      48.616567      872.65459      22758.019    
     20400  -3570041.4     -3570086.2      44.887887      805.72577      20575.866    
     20500  -3570041.8     -3570087.3      45.59098       818.3461       23968.621    
     20600  -3570042.3     -3570089.1      46.888518      841.63657      18939.494    
     20700  -3570042.8     -3570089.1      46.245555      830.09555      18326.545    
     20800  -3570043.4     -3570093        49.612371      890.52902      21936.704    
     20900  -3570043.9     -3570089.3      45.382743      814.60831      20080.591    
     21000  -3570044.4     -3570091.8      47.415399      851.09394      18707.688    
     21100  -3570044.8     -3570092.6      47.798837      857.97655      21385.105    
     21200  -3570045       -3570091.1      46.079665      827.11786      21671.135    
     21300  -3570045.2     -3570089.1      43.901418      788.01891      19026.622    
     21400  -3570045.2     -3570089        43.867692      787.41354      21711.731    
     21500  -3570045       -3570091.5      46.457088      833.89251      18161.964    
     21600  -3570044.7     -3570091.8      47.047117      844.48338      20033.399    
     21700  -3570044.3     -3570090.2      45.940928      824.62757      19998.098    
     21800  -3570043.7     -3570088        44.327835      795.67298      18917.289    
     21900  -3570042.9     -3570089.9      47.007633      843.77465      20437.763    
     22000  -3570042.1     -3570088.5      46.412152      833.08592      20052.808    
     22100  -3570041       -3570089.6      48.574893      871.90656      19527.296    
     22200  -3570040       -3570087.1      47.042768      844.40531      22829.385    
     22300  -3570039       -3570087.9      48.89651       877.67949      23497.947    
     22400  -3570037.9     -3570084.3      46.340965      831.80813      23847.777    
     22500  -3570036.9     -3570086.1      49.204718      883.21175      19962.787    
     22600  -3570036       -3570087.7      51.723498      928.42319      23190.78     
     22700  -3570035.1     -3570085.9      50.753944      911.01995      19285.65     
     22800  -3570034.3     -3570085.6      51.304661      920.90518      21839.039    
     22900  -3570033.6     -3570087.5      53.880739      967.1451       21708.88     
     23000  -3570033       -3570085        51.92176       931.98194      24060.251    
     23100  -3570032.6     -3570084.9      52.295991      938.69929      19638.396    
     23200  -3570032.3     -3570082.7      50.426139      905.13593      27509.078    
     23300  -3570032.1     -3570083.9      51.801937      929.83114      22680.558    
     23400  -3570032       -3570084.6      52.536782      943.02142      19828.857    
     23500  -3570032.1     -3570081.6      49.470416      887.98096      26078.112    
     23600  -3570032.3     -3570084.2      51.934805      932.21609      22255.576    
     23700  -3570032.6     -3570085.6      53.049162      952.21851      21458.356    
     23800  -3570033       -3570083.6      50.698683      910.02802      22111.225    
     23900  -3570033.3     -3570084.5      51.103755      917.29896      24180.608    
     24000  -3570033.8     -3570084.1      50.301625      902.90095      17640.685    
     24100  -3570034.2     -3570086.9      52.731167      946.51058      23321.549    
     24200  -3570034.5     -3570086.6      52.058852      934.44271      27374.972    
     24300  -3570034.8     -3570085.7      50.902649      913.68916      20085.917    
     24400  -3570035.1     -3570085.4      50.304805      902.95802      18116.057    
     24500  -3570035.2     -3570087.3      52.137605      935.8563       22250.886    
     24600  -3570035.2     -3570086.2      50.987802      915.21764      23943.372    
     24700  -3570035.1     -3570089        53.943169      968.26569      21535.274    
     24800  -3570034.8     -3570084.8      49.980039      897.12855      21424.404    
     24900  -3570034.4     -3570084.2      49.844625      894.69792      21392.942    
     25000  -3570033.9     -3570086.4      52.558603      943.41311      24843.888    
     25100  -3570033.2     -3570084.3      51.105998      917.33923      20520.116    
     25200  -3570032.4     -3570084.2      51.815674      930.07772      20674.242    
     25300  -3570031.5     -3570084.3      52.744288      946.7461       25104.455    
     25400  -3570030.6     -3570086.6      56.092483      1006.8453      23464.092    
     25500  -3570029.5     -3570080.5      50.99234       915.2991       22534.335    
     25600  -3570028.4     -3570080.7      52.282454      938.45631      26072.511    
     25700  -3570027.4     -3570080.8      53.473795      959.84056      22766.208    
     25800  -3570026.4     -3570081.6      55.213607      991.06972      23971.83     
     25900  -3570025.4     -3570078.2      52.746565      946.78698      26138.369    
     26000  -3570024.6     -3570078.3      53.716662      964.19996      26283.45     
     26100  -3570023.8     -3570080.3      56.523453      1014.5811      23571.89     
     26200  -3570023.1     -3570080.5      57.346454      1029.3538      21659.614    
     26300  -3570022.7     -3570078.5      55.861448      1002.6983      29084.466    
     26400  -3570022.3     -3570079.5      57.130844      1025.4836      29064.592    
     26500  -3570022.1     -3570078.1      56.00309       1005.2407      23323.748    
     26600  -3570022.1     -3570080.1      57.946342      1040.1216      22245.495    
     26700  -3570022.2     -3570077.9      55.636627      998.66282      31439.933    
     26800  -3570022.5     -3570080.2      57.71091       1035.8957      25015.807    
     26900  -3570022.8     -3570079.7      56.915038      1021.61        21189.78     
     27000  -3570023.2     -3570080        56.709487      1017.9204      27455.432    
     27100  -3570023.8     -3570079.8      56.060335      1006.2683      25777.592    
     27200  -3570024.3     -3570081.1      56.801592      1019.5736      23704.095    
     27300  -3570024.8     -3570082        57.189505      1026.5366      26068.326    
     27400  -3570025.2     -3570082        56.804338      1019.6229      21012.712    
     27500  -3570025.7     -3570080.1      54.414468      976.7254       23853.487    
     27600  -3570026       -3570077.9      51.93345       932.19178      26870.501    
     27700  -3570026.2     -3570080.7      54.488884      978.06114      23287.653    
     27800  -3570026.3     -3570083        56.677645      1017.3488      22683.597    
     27900  -3570026.2     -3570080.9      54.62555       980.51426      23761.211    
     28000  -3570026       -3570080.4      54.409174      976.63037      26709.176    
     28100  -3570025.6     -3570081.4      55.818596      1001.9291      24895.891    
     28200  -3570025.1     -3570080.2      55.094021      988.92319      21706.612    
     28300  -3570024.4     -3570080        55.592441      997.8697       21040.656    
     28400  -3570023.7     -3570081.6      57.932318      1039.8699      24430.901    
     28500  -3570022.8     -3570081.5      58.760239      1054.7308      24225.233    
     28600  -3570021.8     -3570076.7      54.903214      985.49826      22477.807    
     28700  -3570020.8     -3570080.4      59.599191      1069.7898      24448.689    
     28800  -3570019.7     -3570075.3      55.616303      998.29802      28620.242    
     28900  -3570018.6     -3570078.3      59.733262      1072.1963      19774.454    
     29000  -3570017.5     -3570078.8      61.339329      1101.0248      25595.563    
     29100  -3570016.5     -3570078.4      61.901255      1111.1112      28414.019    
     29200  -3570015.5     -3570076.6      61.118029      1097.0526      23601.053    
     29300  -3570014.6     -3570075.4      60.785913      1091.0911      26649.892    
     29400  -3570013.8     -3570075.6      61.761877      1108.6094      25328.255    
     29500  -3570013.2     -3570073.3      60.115591      1079.0591      27062.747    
     29600  -3570012.6     -3570075        62.40009       1120.0652      24841.627    
     29700  -3570012.2     -3570074.2      61.990061      1112.7053      26473.252    
     29800  -3570012       -3570070.1      58.102176      1042.9188      27665.981    
     29900  -3570011.9     -3570072.5      60.571866      1087.2491      26037.86     
     30000  -3570012       -3570074.6      62.579678      1123.2888      28834.23     
     30100  -3570012.2     -3570074.6      62.356465      1119.2822      26674.6      
     30200  -3570012.5     -3570073.3      60.782293      1091.0262      26282.057    
     30300  -3570013       -3570076.5      63.526647      1140.2866      25421.642    
     30400  -3570013.5     -3570074        60.505751      1086.0623      26202.849    
     30500  -3570014.1     -3570074.2      60.092485      1078.6443      28350.235    
     30600  -3570014.7     -3570075.5      60.816852      1091.6465      26649.91     
     30700  -3570015.2     -3570072.8      57.544163      1032.9026      26190.246    
     30800  -3570015.7     -3570075.3      59.625954      1070.2702      26937.559    
     30900  -3570016.1     -3570078.8      62.682467      1125.1338      23980.768    
     31000  -3570016.4     -3570077.7      61.325258      1100.7723      28025.178    
     31100  -3570016.6     -3570077.7      61.107864      1096.8701      26681.355    
     31200  -3570016.6     -3570075.1      58.548733      1050.9344      23076.904    
     31300  -3570016.4     -3570076.1      59.669824      1071.0577      27290.393    
     31400  -3570016.1     -3570072.2      56.053681      1006.1488      26236.255    
     31500  -3570015.6     -3570072.7      57.117764      1025.2488      26310.882    
     31600  -3570014.9     -3570074.2      59.310772      1064.6128      26332.296    
     31700  -3570014.1     -3570071.5      57.409383      1030.4833      29312.868    
     31800  -3570013       -3570073.6      60.52125       1086.3405      24168.503    
     31900  -3570011.9     -3570076.1      64.201492      1152.3999      24559.545    
     32000  -3570010.7     -3570075.7      64.96998       1166.1941      27654.033    
     32100  -3570009.5     -3570072.9      63.452055      1138.9477      24560.064    
     32200  -3570008.3     -3570070.5      62.167293      1115.8866      26694.29     
     32300  -3570007.2     -3570074.5      67.31026       1208.2015      25700.529    
     32400  -3570006.1     -3570068.2      62.044888      1113.6894      25582.96     
     32500  -3570005.2     -3570068.2      63.070637      1132.1014      26509.449    
     32600  -3570004.3     -3570070.1      65.787594      1180.87        27231.93     
     32700  -3570003.6     -3570068.4      64.832456      1163.7255      28490.363    
     32800  -3570002.9     -3570070.9      67.938312      1219.4748      24457.554    
     32900  -3570002.5     -3570073.8      71.270515      1279.287       28254.033    
     33000  -3570002.2     -3570069.4      67.248048      1207.0848      29051.594    
     33100  -3570002.1     -3570070.2      68.076114      1221.9483      27959.208    
     33200  -3570002.2     -3570067.6      65.455473      1174.9085      25410.987    
     33300  -3570002.5     -3570071.8      69.319312      1244.2634      26816.255    
     33400  -3570003       -3570071.4      68.408429      1227.9133      31026.671    
     33500  -3570003.5     -3570069.3      65.764168      1180.4495      27017.965    
     33600  -3570004.1     -3570069.8      65.700323      1179.3035      24939.693    
     33700  -3570004.7     -3570072        67.228483      1206.7336      23908.998    
     33800  -3570005.3     -3570071.4      66.134057      1187.0889      26453.248    
     33900  -3570005.8     -3570072.9      67.043226      1203.4083      26730.82     
     34000  -3570006.3     -3570073        66.739829      1197.9624      29557.832    
     34100  -3570006.6     -3570072.5      65.915257      1183.1615      26795.603    
     34200  -3570006.8     -3570072        65.129937      1169.0652      31260.031    
     34300  -3570006.9     -3570071.9      65.032956      1167.3245      23891.91     
     34400  -3570006.8     -3570071.5      64.759128      1162.4093      22737.013    
     34500  -3570006.5     -3570071.6      65.053562      1167.6943      30795.892    
     34600  -3570006.1     -3570072.3      66.270738      1189.5423      30836.04     
     34700  -3570005.4     -3570069.9      64.48132       1157.4227      26951.668    
     34800  -3570004.7     -3570070.9      66.183879      1187.9832      27463.147    
     34900  -3570003.8     -3570070.3      66.552048      1194.5918      27099.374    
     35000  -3570002.7     -3570066.2      63.47433       1139.3475      24801.231    
     35100  -3570001.6     -3570068.1      66.475473      1193.2173      27037.474    
     35200  -3570000.5     -3570068.3      67.786921      1216.7574      32738.375    
     35300  -3569999.4     -3570063.9      64.534477      1158.3769      29278.422    
     35400  -3569998.1     -3570066.6      68.473454      1229.0805      27497.847    
     35500  -3569996.9     -3570064.6      67.699488      1215.188       30230.749    
     35600  -3569995.8     -3570067.7      71.946113      1291.4138      28343.733    
     35700  -3569994.8     -3570068.5      73.714938      1323.1638      29777.01     
     35800  -3569993.9     -3570066.3      72.382418      1299.2454      30830.981    
     35900  -3569993.2     -3570064.4      71.18096       1277.6795      27719.822    
     36000  -3569992.7     -3570067.8      75.038682      1346.9246      30004.142    
     36100  -3569992.4     -3570063.2      70.815214      1271.1145      31668.933    
     36200  -3569992.3     -3570061.7      69.372557      1245.2192      34874.926    
     36300  -3569992.3     -3570063.1      70.858396      1271.8896      29244.764    
     36400  -3569992.4     -3570061.6      69.203884      1242.1915      33043.942    
     36500  -3569992.6     -3570067.5      74.893959      1344.3269      30696.941    
     36600  -3569993       -3570060.2      67.21479       1206.4878      36878.695    
     36700  -3569993.5     -3570065.1      71.531418      1283.9701      27766.086    
     36800  -3569994.1     -3570064.1      70.039677      1257.1938      28670.424    
     36900  -3569994.7     -3570063.9      69.22112       1242.5009      28143.211    
     37000  -3569995.3     -3570061.4      66.124506      1186.9175      32232.248    
     37100  -3569995.8     -3570066.9      71.079555      1275.8593      30230.033    
     37200  -3569996.2     -3570069        72.777959      1306.3452      31196.425    
     37300  -3569996.6     -3570063.6      67.017711      1202.9503      24126.866    
     37400  -3569996.8     -3570067.6      70.828058      1271.345       29913.623    
     37500  -3569996.9     -3570065.2      68.343699      1226.7514      32469.806    
     37600  -3569996.8     -3570062.7      65.970473      1184.1526      31304.054    
     37700  -3569996.5     -3570067.5      70.981036      1274.0909      27334.336    
     37800  -3569996.1     -3570064.3      68.184377      1223.8916      28256.342    
     37900  -3569995.5     -3570067.6      72.072606      1293.6843      26328.61     
     38000  -3569994.8     -3570065.5      70.660981      1268.346       31733.265    
     38100  -3569993.9     -3570063.8      69.933137      1255.2814      31846.957    
     38200  -3569992.9     -3570063.2      70.345055      1262.6752      26569.777    
     38300  -3569991.8     -3570063        71.210069      1278.202       30259.771    
     38400  -3569990.7     -3570062.6      71.859163      1289.8531      31968.938    
     38500  -3569989.6     -3570063.4      73.798383      1324.6616      29561.634    
     38600  -3569988.5     -3570061.6      73.071453      1311.6134      32915.999    
     38700  -3569987.5     -3570060        72.503999      1301.4277      30125.12     
     38800  -3569986.6     -3570062.8      76.258839      1368.8261      30827.353    
     38900  -3569985.8     -3570058.9      73.163753      1313.2701      33016.061    
     39000  -3569985       -3570060        74.931693      1345.0042      31182.289    
     39100  -3569984.5     -3570058.1      73.589825      1320.918       31938.404    
     39200  -3569984       -3570060.1      76.176519      1367.3485      31904.981    
     39300  -3569983.6     -3570057.4      73.77119       1324.1735      32756.214    
     39400  -3569983.4     -3570057.8      74.456845      1336.4808      33573.104    
     39500  -3569983.3     -3570058.6      75.294339      1351.5136      27605.091    
     39600  -3569983.4     -3570059.6      76.148868      1366.8522      33582.786    
     39700  -3569983.6     -3570062.1      78.481343      1408.7195      31917.174    
     39800  -3569983.8     -3570053.3      69.426357      1246.1849      33187.064    
     39900  -3569984       -3570060.6      76.589937      1374.7692      29906.637    
     40000  -3569984.2     -3570055.7      71.463416      1282.7495      33207.662    
     40100  -3569984.3     -3570058.5      74.20706       1331.9972      32549.969    
     40200  -3569984.4     -3570057        72.558786      1302.4111      32086.76     
     40300  -3569984.4     -3570055.6      71.161648      1277.3329      33031.392    
     40400  -3569984.3     -3570060.8      76.497493      1373.1099      32515.657    
     40500  -3569984       -3570059.5      75.526697      1355.6844      35429.467    
     40600  -3569983.6     -3570055.1      71.4532        1282.5661      33109.361    
     40700  -3569983.2     -3570057.6      74.380328      1335.1073      35344.884    
     40800  -3569982.6     -3570057.3      74.793509      1342.5238      34234.321    
     40900  -3569981.8     -3570056.6      74.78122       1342.3032      33887.826    
     41000  -3569981.1     -3570057.9      76.782056      1378.2177      31753.409    
     41100  -3569980.2     -3570058.5      78.304415      1405.5437      34088.56     
     41200  -3569979.4     -3570054        74.620837      1339.4244      35782.471    
     41300  -3569978.6     -3570053.7      75.172233      1349.3218      34912.465    
     41400  -3569977.8     -3570050.1      72.336083      1298.4137      33346.633    
     41500  -3569976.9     -3570054.5      77.53847       1391.7952      34064.398    
     41600  -3569976.2     -3570051.4      75.223065      1350.2342      38444.266    
     41700  -3569975.5     -3570057.2      81.679917      1466.133       33575.706    
     41800  -3569974.9     -3570055.3      80.319808      1441.7194      32917.748    
     41900  -3569974.4     -3570054.1      79.683613      1430.2999      33440.813    
     42000  -3569973.9     -3570056        82.102389      1473.7163      30542.589    
     42100  -3569973.7     -3570055.1      81.42498       1461.557       32629.168    
     42200  -3569973.6     -3570054.5      80.846514      1451.1737      33497.73     
     42300  -3569973.9     -3570053        79.149824      1420.7185      36679.981    
     42400  -3569974.1     -3570057.2      83.041275      1490.569       29439.36     
     42500  -3569974.6     -3570056.1      81.471083      1462.3845      33840.645    
     42600  -3569975.3     -3570054.6      79.298079      1423.3797      33562.591    
     42700  -3569976.1     -3570051        74.845089      1343.4497      36547.964    
     42800  -3569976.9     -3570054.8      77.896353      1398.219       37015.319    
     42900  -3569977.8     -3570056        78.232285      1404.2489      33772.237    
     43000  -3569978.5     -3570054.1      75.587044      1356.7676      32758.272    
     43100  -3569979.2     -3570055.8      76.601339      1374.9739      35998.032    
     43200  -3569979.6     -3570052.4      72.757329      1305.9749      35109.289    
     43300  -3569979.7     -3570055.9      76.202253      1367.8104      33725.892    
     43400  -3569979.4     -3570058.3      78.882505      1415.9202      34337.165    
     43500  -3569978.8     -3570055.3      76.498205      1373.1227      32589.22     
     43600  -3569977.9     -3570053        75.137148      1348.6921      34114.185    
     43700  -3569976.5     -3570055.8      79.300397      1423.4213      31221.79     
     43800  -3569974.8     -3570053.3      78.527532      1409.5486      36109.397    
     43900  -3569972.8     -3570052.5      79.713314      1430.833       36766.588    
     44000  -3569971.1     -3570051.9      80.770113      1449.8023      27240.6      
     44100  -3569969.8     -3570050.4      80.550899      1445.8675      33344.793    
     44200  -3569969       -3570055.4      86.423836      1551.2851      33325.422    
     44300  -3569968.4     -3570052.4      83.948119      1506.8467      37176.621    
     44400  -3569968.1     -3570049        80.909514      1452.3045      33459.576    
     44500  -3569967.8     -3570049.7      81.844151      1469.081       31312.938    
     44600  -3569967.8     -3570049.8      82.037089      1472.5442      40393.957    
     44700  -3569967.7     -3570048.3      80.593764      1446.6369      38483.946    
     44800  -3569967.6     -3570045.3      77.684663      1394.4193      36254.076    
     44900  -3569967.6     -3570047.8      80.143243      1438.5501      34554.385    
     45000  -3569967.5     -3570048        80.43004       1443.6981      35286.982    
     45100  -3569967.4     -3570048.4      81.02283       1454.3385      34833.44     
     45200  -3569967.3     -3570050        82.677451      1484.0385      37768.683    
     45300  -3569967       -3570048.7      81.66095       1465.7926      35735.855    
     45400  -3569966.6     -3570052.2      85.584763      1536.224       34084.616    
     45500  -3569966       -3570045.4      79.411507      1425.4157      36087.618    
     45600  -3569965.2     -3570050.8      85.598386      1536.4685      35506.763    
     45700  -3569964.2     -3570044.6      80.445171      1443.9697      35388.882    
     45800  -3569962.8     -3570047.4      84.631861      1519.1196      36805.69     
     45900  -3569961.2     -3570046.3      85.108781      1527.6802      38098.066    
     46000  -3569959.5     -3570046.4      86.875641      1559.3949      39363.487    
     46100  -3569957.8     -3570045.8      88.015545      1579.8559      33332.614    
     46200  -3569956.4     -3570039.1      82.685425      1484.1816      38620.227    
     46300  -3569955.3     -3570042.6      87.219651      1565.5698      38199.89     
     46400  -3569954.6     -3570043.4      88.799167      1593.9217      38222.473    
     46500  -3569954.3     -3570039        84.660748      1519.6382      37483.926    
     46600  -3569954.1     -3570040.2      86.059318      1544.7421      37676.962    
     46700  -3569954.1     -3570038.2      84.066605      1508.9735      39195.956    
     46800  -3569954.3     -3570042.2      87.905172      1577.8747      36586.916    
     46900  -3569954.7     -3570045.9      91.168741      1636.4549      34943.23     
     47000  -3569955.5     -3570038.2      82.667739      1483.8642      34880.847    
     47100  -3569956.7     -3570043        86.235261      1547.9003      34189.124    
     47200  -3569958.5     -3570039.8      81.316249      1459.6053      40583.99     
     47300  -3569960.6     -3570047.1      86.534438      1553.2704      35906.282    
     47400  -3569962.7     -3570045.3      82.577037      1482.2361      35026.187    
     47500  -3569964.5     -3570048.6      84.149382      1510.4593      34187.18     
     47600  -3569965.5     -3570043.9      78.364455      1406.6214      33717.868    
     47700  -3569966       -3570047.1      81.113097      1455.9588      39229.32     
     47800  -3569966.1     -3570053.6      87.476065      1570.1724      35426.259    
     47900  -3569966       -3570045.5      79.533777      1427.6104      37602.559    
     48000  -3569965.6     -3570047.5      81.933774      1470.6897      34199.253    
     48100  -3569965       -3570049        84.004293      1507.855       35002.21     
     48200  -3569964.2     -3570047        82.795222      1486.1525      38296.678    
     48300  -3569963.2     -3570041.6      78.413122      1407.4949      33001.609    
     48400  -3569962       -3570046.9      84.920324      1524.2975      38239.656    
     48500  -3569960.6     -3570050.6      89.980525      1615.1268      34663.211    
     48600  -3569959.3     -3570042.4      83.125056      1492.0729      41095.661    
     48700  -3569958.1     -3570041.2      83.149155      1492.5055      39420.775    
     48800  -3569956.9     -3570040.7      83.786015      1503.9369      36400.091    
     48900  -3569955.7     -3570042.2      86.461932      1551.9689      38919.38     
     49000  -3569954.7     -3570042.2      87.483993      1570.3147      36568.125    
     49100  -3569953.9     -3570041.8      87.906524      1577.899       38804.594    
     49200  -3569953       -3570038.4      85.397874      1532.8694      40429.752    
     49300  -3569952.3     -3570046.2      93.846373      1684.5177      35287.909    
     49400  -3569951.8     -3570038.2      86.396598      1550.7962      38797.094    
     49500  -3569951.3     -3570040.5      89.175752      1600.6813      36567.353    
     49600  -3569950.8     -3570037.2      86.374884      1550.4065      38937.457    
     49700  -3569950.4     -3570038.9      88.490445      1588.3802      38061.975    
     49800  -3569950       -3570039.7      89.648021      1609.1584      34549.214    
     49900  -3569949.7     -3570039.9      90.218548      1619.3992      38561.359    
     50000  -3569949.2     -3570037.3      88.042615      1580.3418      44445.079    
Loop time of 5078.17 on 72 procs for 50000 steps with 432 atoms

Performance: 1.701 ns/day, 14.106 hours/ns, 9.846 timesteps/s, 4.253 katom-step/s
86.5% CPU use with 72 MPI tasks x 1 OpenMP threads

MPI task timing breakdown:
Section |  min time  |  avg time  |  max time  |%varavg| %total
---------------------------------------------------------------
Pair    | 3709.6     | 3955.8     | 4228.6     | 175.4 | 77.90
Bond    | 0.021212   | 0.028152   | 0.035121   |   1.8 |  0.00
Neigh   | 0.06037    | 0.062108   | 0.065264   |   0.3 |  0.00
Comm    | 848.08     | 1120.9     | 1367.1     | 329.4 | 22.07
Output  | 0.063568   | 0.064055   | 0.071417   |   0.3 |  0.00
Modify  | 0.87556    | 0.92396    | 0.98951    |   2.5 |  0.02
Other   |            | 0.3913     |            |       |  0.01

Nlocal:              6 ave           9 max           2 min
Histogram: 1 1 3 0 22 21 0 15 7 2
Nghost:        445.778 ave         454 max         437 min
Histogram: 4 7 7 5 9 11 8 11 6 4
Neighs:              0 ave           0 max           0 min
Histogram: 72 0 0 0 0 0 0 0 0 0
FullNghs:      599.694 ave         911 max         198 min
Histogram: 1 1 3 0 22 21 6 9 7 2

Total # of neighbors = 43178
Ave neighs/atom = 99.949074
Ave special neighs/atom = 0
Neighbor list builds = 1625
Dangerous builds = 0
Setting up Verlet run ...
  Unit style    : metal
  Current step  : 50000
  Time step     : 0.002
  Walltime left : 22:35:15.85
Per MPI rank memory allocation (min/avg/max) = 8.045 | 8.045 | 8.046 Mbytes
   Step         TotEng         PotEng         KinEng          Temp          Press     
     50000  -3569949.2     -3570037.3      88.042615      1580.3418      44445.079    
     50100  -3569949.2     -3570038.6      89.42585       1605.1705      45349.916    
     50200  -3569949.2     -3570039.8      90.624145      1626.6796      43984.956    
     50300  -3569949       -3570035        86.004346      1543.7554      41757.611    
     50400  -3569948.6     -3570036.9      88.297745      1584.9213      41379.923    
     50500  -3569948.2     -3570037.1      88.929699      1596.2647      39204.238    
     50600  -3569947.7     -3570033.4      85.705548      1538.3921      41958.915    
     50700  -3569946.9     -3570032.5      85.636754      1537.1572      42056.742    
     50800  -3569945.7     -3570030.8      85.042473      1526.49        46453.661    
     50900  -3569944.1     -3570030.5      86.423112      1551.2721      44061.975    
     51000  -3569942       -3570029.2      87.151131      1564.3399      42767.483    
     51100  -3569939.8     -3570032.4      92.632909      1662.7364      43200.522    
     51200  -3569937.9     -3570027.4      89.52966       1607.0338      45765.675    
     51300  -3569936.6     -3570031.3      94.730325      1700.3844      42979.96     
     51400  -3569935.8     -3570028.5      92.752831      1664.8889      40017.669    
     51500  -3569935.6     -3570027.8      92.216442      1655.2609      42674.963    
     51600  -3569935.8     -3570032.7      96.843805      1738.3208      42158.08     
     51700  -3569936.6     -3570029.5      92.88372       1667.2383      41975.037    
     51800  -3569937.6     -3570035.1      97.481526      1749.7678      42735.184    
     51900  -3569938.7     -3570029.2      90.455472      1623.6519      48282.548    
     52000  -3569939.8     -3570027.4      87.552142      1571.5379      39757.878    
     52100  -3569940.8     -3570032.1      91.320556      1639.18        40267.666    
     52200  -3569941.7     -3570025.6      83.8546        1505.168       44624.381    
     52300  -3569942.5     -3570031.3      88.792994      1593.8109      44710.544    
     52400  -3569942.9     -3570029.9      86.925274      1560.2858      41393.471    
     52500  -3569943.1     -3570032.8      89.681639      1609.7618      42040.621    
     52600  -3569943.1     -3570031.4      88.293387      1584.8431      41292.473    
     52700  -3569943.1     -3570030.5      87.39377       1568.6952      40622.055    
     52800  -3569943       -3570028.9      85.877069      1541.4708      44114.605    
     52900  -3569942.8     -3570035.1      92.207337      1655.0975      42564.777    
     53000  -3569942.8     -3570029        86.213545      1547.5105      48446.182    
     53100  -3569942.7     -3570030.9      88.175344      1582.7242      39247.249    
     53200  -3569942.6     -3570032.4      89.776925      1611.4722      40733.096    
     53300  -3569942.6     -3570029.9      87.324262      1567.4475      46729.479    
     53400  -3569942.4     -3570030.7      88.254066      1584.1373      40834.593    
     53500  -3569942.3     -3570030.6      88.289226      1584.7684      42735.402    
     53600  -3569942.2     -3570031.3      89.128688      1599.8365      36329.773    
     53700  -3569942.2     -3570038        95.813107      1719.8201      40371.024    
     53800  -3569942.1     -3570030.7      88.646814      1591.187       40831.213    
     53900  -3569942.1     -3570029.3      87.211683      1565.4268      38383.567    
     54000  -3569942.1     -3570027.3      85.155489      1528.5186      46755.626    
     54100  -3569942       -3570033.2      91.182355      1636.6993      42156.73     
     54200  -3569942       -3570031.5      89.497814      1606.4622      35116.274    
     54300  -3569942.1     -3570029.2      87.096337      1563.3564      37941.858    
     54400  -3569942.5     -3570034.4      91.894702      1649.4857      40516.058    
     54500  -3569943.2     -3570033        89.766665      1611.288       42105.449    
     54600  -3569944.4     -3570032.9      88.543837      1589.3386      45476.839    
     54700  -3569945.7     -3570034.1      88.428139      1587.2618      43002.493    
     54800  -3569947.2     -3570035.3      88.04969       1580.4688      39387.649    
     54900  -3569948.7     -3570035.7      86.998185      1561.5945      45492.186    
     55000  -3569950.2     -3570038.4      88.232061      1583.7423      38673.013    
     55100  -3569951.4     -3570039.7      88.304077      1585.035       40652.59     
     55200  -3569952.4     -3570039.3      86.935065      1560.4616      38728.744    
     55300  -3569953.1     -3570037.4      84.283277      1512.8627      41633.689    
     55400  -3569953.4     -3570041.2      87.826966      1576.471       34967.183    
     55500  -3569953.4     -3570036.7      83.264017      1494.5672      39766.788    
     55600  -3569953.2     -3570040.6      87.41374       1569.0536      41063.048    
     55700  -3569952.8     -3570039.8      86.989414      1561.4371      38204.597    
     55800  -3569952.2     -3570040.2      87.90797       1577.9249      41245.581    
     55900  -3569951.4     -3570039.5      88.096432      1581.3078      42221.785    
     56000  -3569950.4     -3570039.4      89.022483      1597.9302      42248.806    
     56100  -3569949.1     -3570035.9      86.776587      1557.6169      38600.107    
     56200  -3569947.8     -3570035.4      87.662953      1573.527       43404.32     
     56300  -3569946.4     -3570035.9      89.54775       1607.3586      43487.782    
     56400  -3569945       -3570035.3      90.305117      1620.9531      41387.819    
     56500  -3569943.8     -3570035.5      91.708776      1646.1484      41689.386    
     56600  -3569942.8     -3570036.6      93.852839      1684.6338      43534.166    
     56700  -3569942.1     -3570031.4      89.333253      1603.5084      42949.031    
     56800  -3569941.6     -3570031.6      90.065078      1616.6445      41189.97     
     56900  -3569941.1     -3570032.5      91.439335      1641.312       42330.514    
     57000  -3569940.9     -3570025.5      84.606083      1518.6569      39336.801    
     57100  -3569940.7     -3570025.9      85.289934      1530.9319      42839.26     
     57200  -3569940.4     -3570030.1      89.695167      1610.0047      43965.112    
     57300  -3569940.3     -3570032.5      92.220645      1655.3363      39921.78     
     57400  -3569940.4     -3570029.4      89.000623      1597.5378      46649.865    
     57500  -3569940.6     -3570032.2      91.664217      1645.3486      47407.924    
     57600  -3569940.9     -3570032        91.101248      1635.2435      43354.2      
     57700  -3569941.7     -3570033.4      91.69532       1645.9069      40292.998    
     57800  -3569943       -3570034.7      91.657458      1645.2273      40410.558    
     57900  -3569945.1     -3570034.4      89.373536      1604.2315      41269.409    
     58000  -3569947.6     -3570034.4      86.803547      1558.1008      36808.43     
     58100  -3569949.9     -3570039.2      89.25836       1602.1641      40090.485    
     58200  -3569951.8     -3570036.8      84.966141      1525.1199      41702.418    
     58300  -3569953.1     -3570042.4      89.303958      1602.9826      40006.469    
     58400  -3569954       -3570041.4      87.472316      1570.1051      39959.127    
     58500  -3569954.5     -3570043.4      88.884559      1595.4545      37934.896    
     58600  -3569954.8     -3570041.7      86.929899      1560.3688      37644.296    
     58700  -3569954.9     -3570039.4      84.518595      1517.0866      36395.547    
     58800  -3569954.6     -3570041.3      86.675421      1555.801       37268.648    
     58900  -3569954.1     -3570039.1      84.977032      1525.3154      38474.717    
     59000  -3569953.4     -3570037.7      84.341093      1513.9004      40534.473    
     59100  -3569952.3     -3570046.5      94.216458      1691.1606      41355.306    
     59200  -3569951.1     -3570041.5      90.332121      1621.4378      38194.619    
     59300  -3569949.8     -3570039.8      89.97344       1614.9996      40294.982    
     59400  -3569948.4     -3570036.4      88.059072      1580.6372      39405.385    
     59500  -3569947       -3570037.9      90.840621      1630.5653      38909.599    
     59600  -3569945.9     -3570038.4      92.496095      1660.2806      42183.029    
     59700  -3569944.9     -3570033.2      88.352362      1585.9017      43419.143    
     59800  -3569944       -3570031.5      87.484902      1570.331       42658.418    
     59900  -3569943.3     -3570028.3      85.060549      1526.8145      46171.203    
     60000  -3569942.7     -3570031.4      88.686615      1591.9014      46115.747    
     60100  -3569942.1     -3570034.6      92.436191      1659.2053      39611.176    
     60200  -3569941.9     -3570032.1      90.247481      1619.9185      43047.205    
     60300  -3569941.8     -3570030.3      88.536519      1589.2072      43196.122    
     60400  -3569941.7     -3570028.6      86.857982      1559.0779      36831.046    
     60500  -3569941.7     -3570027.9      86.227992      1547.7698      41108.777    
     60600  -3569941.6     -3570027.7      86.093558      1545.3567      44503.586    
     60700  -3569941.3     -3570028.5      87.213653      1565.4621      45214.962    
     60800  -3569940.8     -3570025.3      84.498482      1516.7255      45606.812    
     60900  -3569940.1     -3570025.7      85.587964      1536.2815      43662.76     
     61000  -3569939.4     -3570025.4      86.023622      1544.1014      43928.189    
     61100  -3569938.8     -3570028.4      89.622555      1608.7013      47624.121    
     61200  -3569938.2     -3570022.5      84.322724      1513.5707      43255.021    
     61300  -3569937.8     -3570028.2      90.347786      1621.719       42128.943    
     61400  -3569937.7     -3570027.8      90.040959      1616.2115      43966.14     
     61500  -3569937.7     -3570022.5      84.780643      1521.7903      43776.759    
     61600  -3569937.7     -3570029.6      91.896746      1649.5224      44578.06     
     61700  -3569937.7     -3570025.4      87.772983      1575.502       48841.003    
     61800  -3569937.5     -3570029.1      91.609848      1644.3727      42278.578    
     61900  -3569937       -3570023        85.957572      1542.9158      42304.452    
     62000  -3569936.5     -3570019.6      83.128761      1492.1394      48586.249    
     62100  -3569935.9     -3570022.9      86.964272      1560.9858      48274.161    
     62200  -3569935       -3570017.7      82.691204      1484.2854      52829.565    
     62300  -3569933.8     -3570021.9      88.131491      1581.9371      49373.63     
     62400  -3569932.2     -3570014.3      82.078306      1473.284       48981.554    
     62500  -3569930.6     -3570015.1      84.590001      1518.3683      45765.079    
     62600  -3569928.8     -3570017.6      88.813298      1594.1754      51538.557    
     62700  -3569927.3     -3570011.7      84.380583      1514.6093      54060.074    
     62800  -3569926       -3570012.5      86.487796      1552.4332      53362.659    
     62900  -3569924.9     -3570012.4      87.436958      1569.4704      50470.457    
     63000  -3569923.9     -3570011.4      87.46487       1569.9714      49993.484    
     63100  -3569923       -3570011.5      88.484436      1588.2724      49215.667    
     63200  -3569922.2     -3570009.1      86.881017      1559.4914      51981.149    
     63300  -3569921.3     -3570006.7      85.405116      1532.9994      52555.947    
     63400  -3569920.4     -3570006.6      86.228201      1547.7735      53195.802    
     63500  -3569919.4     -3570008.7      89.233482      1601.7175      56568.548    
     63600  -3569918.5     -3570008.6      90.080669      1616.9243      51456.744    
     63700  -3569917.6     -3570004.1      86.480135      1552.2957      55897.914    
     63800  -3569916.7     -3570003.2      86.576076      1554.0178      54886.108    
     63900  -3569915.7     -3570006.8      91.059375      1634.4918      54284.528    
     64000  -3569914.9     -3570006.4      91.583295      1643.8961      49103.882    
     64100  -3569914.1     -3569999        84.903524      1523.9959      53420.933    
     64200  -3569913.4     -3570000.5      87.149165      1564.3046      59764.876    
     64300  -3569912.9     -3570006.4      93.550634      1679.2093      51993.28     
     64400  -3569912.4     -3570004.8      92.414486      1658.8157      53976.524    
     64500  -3569911.8     -3569999.3      87.489153      1570.4073      56374.273    
     64600  -3569911.2     -3570002.9      91.718441      1646.3219      57350.734    
     64700  -3569910.7     -3570001.6      90.874908      1631.1807      57904.916    
     64800  -3569910.1     -3569997.5      87.360823      1568.1038      53496.218    
     64900  -3569909.6     -3570000.9      91.296352      1638.7455      52745.886    
     65000  -3569909       -3569998.2      89.158866      1600.3782      55844.952    
     65100  -3569908.2     -3570000.4      92.151719      1654.0991      52891.88     
     65200  -3569907.2     -3569995.5      88.335958      1585.6072      54558.683    
     65300  -3569905.7     -3569997.3      91.674241      1645.5285      56121.49     
     65400  -3569903.9     -3569999.9      96.001587      1723.2032      60424.165    
     65500  -3569902.3     -3569991.9      89.581408      1607.9627      51684.032    
     65600  -3569901       -3569998.2      97.200031      1744.715       53540.612    
     65700  -3569900.1     -3569990.8      90.718618      1628.3753      51255.112    
     65800  -3569899.6     -3569988.5      88.904274      1595.8083      59073.262    
     65900  -3569899.5     -3569994        94.487068      1696.018       55793.784    
     66000  -3569899.7     -3569996.1      96.386087      1730.1049      52901.056    
     66100  -3569900.4     -3569995.3      94.846219      1702.4647      57604.834    
     66200  -3569901.6     -3569994.9      93.318259      1675.0382      53410.097    
     66300  -3569903.2     -3569993.5      90.290312      1620.6874      52418.192    
     66400  -3569905.1     -3569997.2      92.141584      1653.9172      54922.311    
     66500  -3569907.1     -3569998.2      91.069182      1634.6679      52736.73     
     66600  -3569908.8     -3570000.1      91.284118      1638.5259      56382.362    
     66700  -3569910.3     -3570001        90.776302      1629.4108      53837.731    
     66800  -3569911.3     -3570001.6      90.288852      1620.6611      53716.583    
     66900  -3569911.9     -3569999        87.03085       1562.1809      53541.982    
     67000  -3569912.3     -3569999.6      87.281602      1566.6818      55092.459    
     67100  -3569912.5     -3570000.4      87.960488      1578.8676      57691.923    
     67200  -3569912.5     -3569995.8      83.323679      1495.6381      54615.712    
     67300  -3569912.2     -3569994.7      82.460533      1480.1449      54089.856    
     67400  -3569911.9     -3569996.5      84.545777      1517.5745      54402.448    
     67500  -3569911.5     -3570000.8      89.281411      1602.5779      53064.776    
     67600  -3569910.9     -3569996.1      85.203947      1529.3885      50264.171    
     67700  -3569910       -3569992.7      82.663159      1483.782       53995.086    
     67800  -3569908.8     -3569994.1      85.337997      1531.7946      49175.334    
     67900  -3569907.3     -3569992.9      85.605067      1536.5884      52138.15     
     68000  -3569905.6     -3569994.4      88.73142       1592.7057      55396.704    
     68100  -3569904.1     -3569991.2      87.080777      1563.0771      53792.923    
     68200  -3569902.8     -3569990.9      88.156444      1582.385       52659.985    
     68300  -3569901.7     -3569991.9      90.187279      1618.838       54842.371    
     68400  -3569900.8     -3569989.4      88.58807       1590.1326      57583.57     
     68500  -3569900.2     -3569992.6      92.396574      1658.4942      49619.366    
     68600  -3569899.7     -3569993.7      93.990441      1687.1037      52128.36     
     68700  -3569899.3     -3569990.4      91.051966      1634.3588      51773.126    
     68800  -3569899.2     -3569993.9      94.684042      1699.5537      49161.812    
     68900  -3569899.1     -3569986        86.897837      1559.7933      54201.239    
     69000  -3569899.1     -3569994.3      95.141493      1707.7648      54233.471    
     69100  -3569899.2     -3569991.7      92.479607      1659.9846      53543.628    
     69200  -3569899.4     -3569991.1      91.694906      1645.8995      57046.725    
     69300  -3569899.9     -3569992.3      92.42916       1659.0791      52349.213    
     69400  -3569900.6     -3569989.6      88.970357      1596.9945      54929.692    
     69500  -3569901.6     -3569994.3      92.706456      1664.0565      54992.398    
     69600  -3569902.6     -3569994.7      92.063707      1652.5193      57141.951    
     69700  -3569903.9     -3569986.6      82.685378      1484.1808      54608.959    
     69800  -3569905.2     -3569991.5      86.287637      1548.8404      53036.801    
     69900  -3569906.2     -3569990.6      84.331916      1513.7357      57797.707    
     70000  -3569907.2     -3569998.2      91.069403      1634.6718      50423.242    
     70100  -3569908.1     -3569998.4      90.298474      1620.8339      54079.694    
     70200  -3569908.9     -3569994.6      85.672039      1537.7906      57718.679    
     70300  -3569909.4     -3569999.5      90.135349      1617.9058      54234.881    
     70400  -3569909.8     -3569994        84.119272      1509.9188      48990.572    
     70500  -3569910.2     -3569987.6      77.355258      1388.5065      51716.913    
     70600  -3569910.3     -3569999.5      89.20105       1601.1354      50804.139    
     70700  -3569910.3     -3569998.3      87.987683      1579.3558      52604.754    
     70800  -3569910.2     -3569994.8      84.619823      1518.9036      47378.129    
     70900  -3569909.8     -3570001.9      92.140471      1653.8972      51792.583    
     71000  -3569909.1     -3569994.7      85.572618      1536.006       52121.997    
     71100  -3569908.3     -3569996.4      88.06575       1580.7571      53278.811    
     71200  -3569907.3     -3569993        85.720598      1538.6622      47676.367    
     71300  -3569906.1     -3569994.9      88.788315      1593.7269      56484.995    
     71400  -3569904.7     -3569995.3      90.596766      1626.1881      56241.313    
     71500  -3569903.4     -3569995.8      92.358529      1657.8113      52665.093    
     71600  -3569902.4     -3569995.8      93.360525      1675.7969      54204.845    
     71700  -3569901.7     -3569997.3      95.607427      1716.1282      50356.606    
     71800  -3569901.2     -3569992.1      90.959818      1632.7048      53186.008    
     71900  -3569900.9     -3569991.9      90.924695      1632.0744      56249.546    
     72000  -3569901.1     -3569995        93.870657      1684.9536      54637.145    
     72100  -3569901.5     -3569994.5      93.008495      1669.478       53098.036    
     72200  -3569902.2     -3569995.5      93.321356      1675.0938      54212.387    
     72300  -3569903       -3569991.4      88.407834      1586.8974      52229.881    
     72400  -3569904       -3569995        91.021822      1633.8178      54705.364    
     72500  -3569905.1     -3569991.6      86.47238       1552.1565      54680.645    
     72600  -3569906.2     -3569992.4      86.122915      1545.8837      57905.548    
     72700  -3569907.3     -3569988.7      81.407317      1461.2399      55063.016    
     72800  -3569908       -3569993.4      85.331845      1531.6842      52001.88     
     72900  -3569908.6     -3569996.3      87.698713      1574.1688      50197.744    
     73000  -3569909       -3569996.7      87.67759       1573.7897      56357.738    
     73100  -3569909.2     -3569997.2      87.991955      1579.4325      53700.908    
     73200  -3569909.2     -3569998.2      88.977871      1597.1294      52315.101    
     73300  -3569909       -3569992        83.007714      1489.9666      51234.35     
     73400  -3569908.2     -3569991.9      83.685477      1502.1323      52653.354    
     73500  -3569906.8     -3569993.2      86.369312      1550.3064      51743.156    
     73600  -3569904.7     -3569992.4      87.709621      1574.3646      51920.783    
     73700  -3569902.1     -3569993.6      91.512686      1642.6287      49393.443    
     73800  -3569899.9     -3569993.8      93.916983      1685.7851      51422.088    
     73900  -3569898.1     -3569986.4      88.25564       1584.1655      48537.876    
     74000  -3569896.8     -3569988.8      92.002433      1651.4195      52362.296    
     74100  -3569895.8     -3569983.2      87.471047      1570.0823      52180.662    
     74200  -3569895       -3569986.8      91.830224      1648.3284      56033.535    
     74300  -3569894.4     -3569982.4      88.002837      1579.6278      51841.664    
     74400  -3569893.9     -3569983.3      89.420846      1605.0807      52559.884    
     74500  -3569893.4     -3569986        92.574078      1661.6804      47064.6      
     74600  -3569893.1     -3569978.6      85.509738      1534.8773      51092.523    
     74700  -3569892.8     -3569982.4      89.568298      1607.7274      53905.016    
     74800  -3569892.5     -3569984.1      91.653805      1645.1617      53512.536    
     74900  -3569892.1     -3569985.2      93.018916      1669.6651      53040.284    
     75000  -3569892       -3569982.2      90.206976      1619.1915      46471.03     
     75100  -3569892       -3569984.8      92.812675      1665.9631      49643.637    
     75200  -3569892.3     -3569983.9      91.515146      1642.6728      52827.912    
     75300  -3569893       -3569982        89.036731      1598.1859      55594.569    
     75400  -3569893.9     -3569982.5      88.592053      1590.2041      52378.542    
     75500  -3569895.1     -3569983.1      87.943441      1578.5616      49153.62     
     75600  -3569896.6     -3569984.4      87.877208      1577.3728      48286.14     
     75700  -3569898.1     -3569984.9      86.759768      1557.315       49272.672    
     75800  -3569899.6     -3569979.9      80.319668      1441.7169      48932.145    
     75900  -3569900.7     -3569985        84.296841      1513.1061      51974.198    
     76000  -3569901.4     -3569988.5      87.140779      1564.1541      47359.506    
     76100  -3569901.7     -3569988.4      86.665818      1555.6286      53402.454    
     76200  -3569901.8     -3569984.7      82.941977      1488.7867      51036.309    
     76300  -3569901.4     -3569985.4      83.994129      1507.6725      50207.08     
     76400  -3569900.6     -3569986.1      85.57499       1536.0486      50423.933    
     76500  -3569899.3     -3569984.5      85.233324      1529.9158      50922.324    
     76600  -3569897.4     -3569988.1      90.754685      1629.0227      57452.829    
     76700  -3569895.1     -3569986.4      91.318478      1639.1427      54336.465    
     76800  -3569892.9     -3569981        88.088489      1581.1652      49843.009    
     76900  -3569891.2     -3569984.3      93.138003      1671.8027      50243.972    
     77000  -3569890.1     -3569983.6      93.554721      1679.2826      50685.194    
     77100  -3569889.6     -3569985.9      96.354002      1729.529       56226.428    
     77200  -3569889.6     -3569981.4      91.776276      1647.36        57739.687    
     77300  -3569889.9     -3569979.4      89.448126      1605.5703      50687.492    
     77400  -3569890.3     -3569981.1      90.777488      1629.432       54341.58     
     77500  -3569890.7     -3569981.5      90.782936      1629.5298      47412.968    
     77600  -3569891.4     -3569977.8      86.409875      1551.0345      52838.393    
     77700  -3569892.1     -3569985.1      93.031669      1669.894       54368.81     
     77800  -3569892.9     -3569983        90.079555      1616.9043      58170.644    
     77900  -3569893.7     -3569980        86.218631      1547.6018      52573.71     
     78000  -3569894.6     -3569981.7      87.182423      1564.9016      52542.154    
     78100  -3569895.3     -3569986.7      91.399703      1640.6006      56273.789    
     78200  -3569896       -3569985.6      89.537304      1607.1711      52068.763    
     78300  -3569896.7     -3569987.9      91.186093      1636.7664      54087.304    
     78400  -3569897.1     -3569985.4      88.243939      1583.9555      49990.247    
     78500  -3569897.4     -3569982.6      85.266888      1530.5182      51977.767    
     78600  -3569897.5     -3569983.8      86.325937      1549.5279      50449.292    
     78700  -3569897.5     -3569983.6      86.069021      1544.9163      46351.294    
     78800  -3569897.4     -3569988.2      90.786989      1629.6026      49495.562    
     78900  -3569897.2     -3569984.3      87.146791      1564.262       53944.547    
     79000  -3569896.8     -3569986.4      89.599239      1608.2828      50229.469    
     79100  -3569896.1     -3569983.1      86.964052      1560.9819      50164.442    
     79200  -3569895.1     -3569983.1      88.065279      1580.7486      52889.85     
     79300  -3569893.5     -3569984.8      91.353186      1639.7657      47476.8      
     79400  -3569891       -3569982.5      91.483559      1642.1058      53191.389    
     79500  -3569887.9     -3569981.3      93.410595      1676.6956      54509.231    
     79600  -3569885.1     -3569974.5      89.374043      1604.2406      55595.619    
     79700  -3569883.4     -3569981.6      98.189054      1762.4677      52874.733    
     79800  -3569882.6     -3569979        96.383803      1730.0639      53694.747    
     79900  -3569882.4     -3569973.9      91.498699      1642.3776      52660.196    
     80000  -3569882.7     -3569977.5      94.780009      1701.2762      54526.863    
     80100  -3569883.7     -3569980.9      97.191646      1744.5645      60720.759    
     80200  -3569885       -3569979.1      94.100919      1689.0868      60766.168    
     80300  -3569886.5     -3569980.1      93.658856      1681.1518      51971.582    
     80400  -3569888.1     -3569979.5      91.336917      1639.4736      53835.426    
     80500  -3569889.7     -3569983.3      93.569061      1679.5401      53471.721    
     80600  -3569891       -3569978.8      87.79953       1575.9785      57682.63     
     80700  -3569892       -3569977.2      85.216306      1529.6103      48599.771    
     80800  -3569892.9     -3569983.8      90.976825      1633.0101      52505.893    
     80900  -3569893.6     -3569980.8      87.201704      1565.2477      43068.38     
     81000  -3569894       -3569979.9      85.939071      1542.5837      50696.532    
     81100  -3569894.3     -3569982.3      88.063562      1580.7178      56626.05     
     81200  -3569894.5     -3569983.9      89.343415      1603.6908      52951.624    
     81300  -3569894.7     -3569984.6      89.918024      1614.0049      53889.678    
     81400  -3569894.9     -3569984.7      89.766864      1611.2916      51913.891    
     81500  -3569895.1     -3569981.8      86.73307       1556.8358      49029.384    
     81600  -3569895.1     -3569983.2      88.136479      1582.0266      56471.201    
     81700  -3569895.2     -3569987.9      92.640585      1662.8741      54879.064    
     81800  -3569895.6     -3569987.1      91.482974      1642.0953      54361.507    
     81900  -3569896.2     -3569985.5      89.28376       1602.62        49824.315    
     82000  -3569897.2     -3569984.4      87.170417      1564.6861      57739.536    
     82100  -3569898.8     -3569987.7      88.940371      1596.4563      52958.074    
     82200  -3569900.7     -3569993.3      92.562408      1661.4709      53478.969    
     82300  -3569902.7     -3569983        80.299823      1441.3607      50034.084    
     82400  -3569904.3     -3569992.1      87.718817      1574.5297      50072.089    
     82500  -3569905.5     -3569990.2      84.613307      1518.7866      48420.217    
     82600  -3569906.3     -3569990.1      83.739699      1503.1056      47895.532    
     82700  -3569906.8     -3569993.9      87.17224       1564.7188      45979.319    
     82800  -3569906.8     -3569997.4      90.503463      1624.5134      53977.596    
     82900  -3569906.7     -3569992.8      86.030424      1544.2235      53860.973    
     83000  -3569906.4     -3569994.7      88.297375      1584.9147      50876.685    
     83100  -3569905.8     -3569993.5      87.702001      1574.2279      54126.1      
     83200  -3569904.8     -3569990.4      85.620142      1536.859       55958.815    
     83300  -3569903.5     -3569992.4      88.875871      1595.2985      53014.148    
     83400  -3569902.2     -3569988.1      85.892145      1541.7414      54347.39     
     83500  -3569900.6     -3569986.4      85.761144      1539.39        54213.217    
     83600  -3569898.8     -3569987.6      88.807553      1594.0722      47751.996    
     83700  -3569897.1     -3569985.8      88.666589      1591.542       49620.757    
     83800  -3569895.8     -3569984.5      88.668748      1591.5807      55816.879    
     83900  -3569894.8     -3569987.4      92.54011       1661.0706      49122.701    
     84000  -3569894.2     -3569985        90.878244      1631.2406      54429.531    
     84100  -3569893.7     -3569982.6      88.938979      1596.4313      51510.238    
     84200  -3569893.4     -3569981.7      88.291587      1584.8108      52080.492    
     84300  -3569893.1     -3569981.2      88.134838      1581.9972      48600.356    
     84400  -3569892.8     -3569981.7      88.958742      1596.786       51330.854    
     84500  -3569892.5     -3569981.4      88.988527      1597.3207      52737.828    
     84600  -3569892.1     -3569980.5      88.426802      1587.2379      50026.579    
     84700  -3569891.7     -3569981.2      89.509306      1606.6685      50761.457    
     84800  -3569891.3     -3569983.2      91.969078      1650.8208      55603.001    
     84900  -3569890.7     -3569975.3      84.619967      1518.9062      50848.75     
     85000  -3569889.9     -3569976.8      86.831018      1558.5939      50227.689    
     85100  -3569888.9     -3569976.3      87.413613      1569.0514      47070.466    
     85200  -3569887.7     -3569978        90.374129      1622.1919      50327.431    
     85300  -3569886.3     -3569978.1      91.809745      1647.9608      55877.618    
     85400  -3569885       -3569972.1      87.094059      1563.3155      45615.376    
     85500  -3569883.8     -3569973.1      89.243659      1601.9002      53944.385    
     85600  -3569883       -3569971.6      88.604807      1590.433       48936.839    
     85700  -3569882.4     -3569973.6      91.165705      1636.4004      50326.111    
     85800  -3569881.9     -3569973.3      91.436682      1641.2644      55565.318    
     85900  -3569881.5     -3569967.5      86.064976      1544.8437      53626.305    
     86000  -3569881.3     -3569975.9      94.633406      1698.6448      49074.661    
     86100  -3569881.4     -3569974.3      92.872011      1667.0282      55966.747    
     86200  -3569882.1     -3569976.1      93.95904       1686.5401      52431.246    
     86300  -3569883.4     -3569974.7      91.28206       1638.489       53169.504    
     86400  -3569885.5     -3569974.9      89.362278      1604.0294      51956.735    
     86500  -3569888.5     -3569979.2      90.6808        1627.6965      54540.892    
     86600  -3569891.5     -3569977.1      85.640368      1537.2221      48373.142    
     86700  -3569893.7     -3569980.1      86.390201      1550.6814      50199.875    
     86800  -3569894.9     -3569978.3      83.377657      1496.607       55740.714    
     86900  -3569895.6     -3569980.7      85.080656      1527.1754      49150.217    
     87000  -3569895.9     -3569985.3      89.443001      1605.4784      52553.852    
     87100  -3569895.9     -3569987.1      91.202289      1637.0571      52369.629    
     87200  -3569895.8     -3569982.7      86.899859      1559.8296      58225.957    
     87300  -3569895.7     -3569981.1      85.406666      1533.0272      59254.692    
     87400  -3569895.4     -3569978.7      83.294752      1495.1189      56253.24     
     87500  -3569894.8     -3569983.3      88.492437      1588.416       56555.682    
     87600  -3569894.1     -3569979.9      85.834849      1540.713       52995.149    
     87700  -3569893.1     -3569980.6      87.575377      1571.955       53378.919    
     87800  -3569892       -3569978.4      86.436755      1551.517       48419.728    
     87900  -3569890.7     -3569986.9      96.20675       1726.8859      49602.161    
     88000  -3569889.4     -3569981.2      91.761201      1647.0894      49168.368    
     88100  -3569888.3     -3569983.9      95.648258      1716.8611      47824.048    
     88200  -3569887.2     -3569973.5      86.252905      1548.217       53250.113    
     88300  -3569886.3     -3569972.7      86.37858       1550.4728      50714.293    
[...]
    430100  -3570084.2     -3570100.9      16.681022      299.41996     -1137.2302    
    430200  -3570084.1     -3570100.3      16.117899      289.31205      5421.9327    
    430300  -3570084.1     -3570101.1      17.055783      306.14682     -3668.2896    
    430400  -3570084       -3570100.8      16.824555      301.99633     -413.34608    
    430500  -3570083.9     -3570101.8      17.834501      320.12461      999.18595    
    430600  -3570083.9     -3570101.8      17.823212      319.92196     -2266.5569    
    430700  -3570083.9     -3570101        17.059484      306.21326      916.03315    
    430800  -3570084.1     -3570101.5      17.466279      313.51512     -2137.6265    
    430900  -3570084.3     -3570102.2      17.952897      322.24978      562.54602    
    431000  -3570084.6     -3570100.9      16.294711      292.48578      172.58349    
    431100  -3570085.1     -3570101.8      16.698573      299.73499      1476.1418    
    431200  -3570085.6     -3570101.9      16.28514       292.31399      119.95143    
    431300  -3570085.9     -3570102.2      16.244117      291.57762     -2422.007     
    431400  -3570086.1     -3570102.4      16.267161      291.99127      3159.7909    
    431500  -3570086.4     -3570102.2      15.866541      284.80024     -2052.1258    
    431600  -3570086.4     -3570101.7      15.303384      274.69171     -1566.0513    
    431700  -3570086.4     -3570102.8      16.344597      293.38122     -97.071613    
    431800  -3570086.4     -3570101.9      15.56273       279.34692      1531.5611    
    431900  -3570086.3     -3570102.3      16.057824      288.23372      1509.6907    
    432000  -3570086.1     -3570101.9      15.736045      282.45787     -2336.1611    
    432100  -3570086       -3570101.9      15.935893      286.04508      347.64646    
    432200  -3570085.8     -3570102        16.29389       292.47105      1396.1133    
    432300  -3570085.5     -3570101.9      16.341737      293.32989     -1048.4273    
    432400  -3570085.3     -3570101.5      16.269564      292.0344      -506.05063    
    432500  -3570085       -3570101.8      16.807064      301.68239     -1114.8881    
    432600  -3570084.8     -3570101.5      16.700576      299.77095      1226.8111    
    432700  -3570084.7     -3570101.6      16.89786       303.31215     -2131.2831    
    432800  -3570084.5     -3570100.6      16.073418      288.51363      1913.3024    
    432900  -3570084.4     -3570101.5      17.048578      306.01749      361.236      
    433000  -3570084.4     -3570100.6      16.280709      292.23444      654.07521    
    433100  -3570084.3     -3570101.8      17.457321      313.35432     -736.83338    
    433200  -3570084.3     -3570101.5      17.200866      308.75103      1371.338     
    433300  -3570084.4     -3570101.1      16.747147      300.60689     -2433.341     
    433400  -3570084.4     -3570100.8      16.337893      293.26088      1346.1641    
    433500  -3570084.4     -3570101.3      16.886348      303.10551     -798.69226    
    433600  -3570084.5     -3570101.6      17.090458      306.76922      480.92946    
    433700  -3570084.6     -3570101.6      17.018947      305.48562     -1332.6216    
    433800  -3570084.7     -3570101.8      17.043012      305.91759     -516.22396    
    433900  -3570084.8     -3570103.1      18.277926      328.08396      1212.2588    
    434000  -3570084.9     -3570102.4      17.498589      314.09507     -270.70184    
    434100  -3570085       -3570101.6      16.575768      297.53067     -957.57592    
    434200  -3570085.1     -3570102.4      17.282712      310.22014      2037.2482    
    434300  -3570085.2     -3570101.9      16.696098      299.69058      623.50499    
    434400  -3570085.2     -3570102.5      17.34063       311.25974     -745.08644    
    434500  -3570085.2     -3570101.7      16.485092      295.90307     -574.14226    
    434600  -3570085.2     -3570101.7      16.542889      296.94051     -1205.0849    
    434700  -3570085.2     -3570102.8      17.655768      316.91639     -95.713684    
    434800  -3570085.2     -3570100.8      15.63799       280.69781      705.89565    
    434900  -3570085.1     -3570102        16.815936      301.84164     -1071.2295    
    435000  -3570085.1     -3570101.5      16.40187       294.40925      376.13367    
    435100  -3570085.1     -3570100.7      15.635601      280.65492     -211.3109     
    435200  -3570085       -3570102.4      17.333255      311.12738     -316.71386    
    435300  -3570085       -3570102        16.982226      304.82648     -974.14248    
    435400  -3570085       -3570101.8      16.838338      302.24374      1619.1221    
    435500  -3570085       -3570102        17.001849      305.17872     -555.62516    
    435600  -3570085       -3570101.8      16.749831      300.65507      1255.622     
    435700  -3570084.9     -3570101.5      16.534373      296.78764     -2080.9716    
    435800  -3570084.9     -3570101.6      16.770394      301.02417      2248.8085    
    435900  -3570084.8     -3570101.2      16.383566      294.0807      -1619.0771    
    436000  -3570084.8     -3570102.3      17.558755      315.17503      702.09641    
    436100  -3570084.7     -3570102.5      17.808995      319.66678      2831.1956    
    436200  -3570084.7     -3570101        16.22102       291.16304     -2021.46      
    436300  -3570084.7     -3570102.4      17.681024      317.36974     -365.30283    
    436400  -3570084.6     -3570101.7      17.027167      305.63317      609.99815    
    436500  -3570084.6     -3570102.8      18.201329      326.70907      1695.9032    
    436600  -3570084.7     -3570101.7      16.994036      305.03848     -2320.903     
    436700  -3570084.7     -3570100.9      16.224834      291.2315      -259.65912    
    436800  -3570084.7     -3570101.7      17.036088      305.79331     -712.14163    
    436900  -3570084.8     -3570101.6      16.837216      302.22361      27.006559    
    437000  -3570084.8     -3570101.4      16.592921      297.83856      13.819331    
    437100  -3570084.9     -3570100.7      15.82112       283.98495      3250.2021    
    437200  -3570085       -3570101.6      16.611587      298.17362     -1293.264     
    437300  -3570085.1     -3570102.5      17.481098      313.78111      1091.8575    
    437400  -3570085.2     -3570101.4      16.253068      291.73829     -822.06864    
    437500  -3570085.3     -3570101.9      16.55351       297.13116     -25.752254    
    437600  -3570085.4     -3570102.1      16.711402      299.96527      1969.0486    
    437700  -3570085.6     -3570101.7      16.133794      289.59736      233.66242    
    437800  -3570085.7     -3570102.8      17.141177      307.67962      822.35539    
    437900  -3570085.8     -3570101.3      15.498878      278.20079     -2219.2627    
    438000  -3570086       -3570102.5      16.510736      296.36338      902.22474    
    438100  -3570086.1     -3570102.7      16.601265      297.98835      413.93335    
    438200  -3570086.2     -3570102        15.8553        284.59846      1713.4352    
    438300  -3570086.2     -3570102.2      15.955562      286.39815      823.53953    
    438400  -3570086.3     -3570102.6      16.312469      292.80453     -86.805577    
    438500  -3570086.2     -3570102.5      16.316435      292.87572     -1614.4264    
    438600  -3570086.2     -3570102.6      16.489673      295.9853       122.82594    
    438700  -3570086.1     -3570102.2      16.170639      290.25872      937.84309    
    438800  -3570085.9     -3570102        16.158552      290.04176      443.93846    
    438900  -3570085.6     -3570102.3      16.734047      300.37174      2804.3856    
    439000  -3570085.3     -3570102.4      17.140362      307.66498     -2221.1562    
    439100  -3570084.9     -3570101.6      16.654288      298.94009      45.575177    
    439200  -3570084.6     -3570100.9      16.275842      292.14708     -1116.6683    
    439300  -3570084.3     -3570102.3      17.949381      322.18667      730.99688    
    439400  -3570084.2     -3570101.4      17.255229      309.72682      2206.649     
    439500  -3570084.1     -3570101.1      17.033149      305.74054     -1068.7176    
    439600  -3570084       -3570101        17.040626      305.87475      60.623255    
    439700  -3570083.9     -3570101.4      17.456144      313.33319      1287.7211    
    439800  -3570084       -3570101.6      17.679941      317.35029     -2636.2618    
    439900  -3570084       -3570101.1      17.034608      305.76673      2314.0335    
    440000  -3570084.1     -3570102        17.896436      321.23632     -924.01383    
    440100  -3570084.3     -3570101.3      16.959895      304.42566      2578.6336    
    440200  -3570084.6     -3570100.7      16.118766      289.32761     -1930.8157    
    440300  -3570084.8     -3570102.2      17.361994      311.64323     -185.48207    
    440400  -3570085.1     -3570101.5      16.392627      294.24335     -272.8791     
    440500  -3570085.4     -3570101.4      15.987439      286.97033     -313.74794    
    440600  -3570085.7     -3570102.5      16.842482      302.31812      947.27822    
    440700  -3570085.9     -3570102.6      16.695689      299.68323     -1974.2002    
    440800  -3570085.9     -3570102.6      16.677351      299.35407      1799.7229    
    440900  -3570085.9     -3570102.1      16.156052      289.99688     -1878.318     
    441000  -3570086       -3570102.2      16.208208      290.93308      839.26842    
    441100  -3570085.9     -3570102.8      16.839187      302.25897     -758.18939    
    441200  -3570085.9     -3570102.4      16.522839      296.58061      1083.3568    
    441300  -3570085.8     -3570102.2      16.397623      294.33302     -509.87081    
    441400  -3570085.7     -3570102.1      16.41122       294.57709     -1192.8707    
    441500  -3570085.6     -3570102.2      16.553087      297.12355      2020.6604    
    441600  -3570085.5     -3570101.9      16.445593      295.19406     -1044.0055    
    441700  -3570085.4     -3570102.6      17.278764      310.14927     -2062.643     
    441800  -3570085.2     -3570102.1      16.901673      303.38058      2845.1423    
    441900  -3570085.1     -3570102        16.904669      303.43436     -1925.3501    
    442000  -3570084.9     -3570101.6      16.650288      298.8683      -2108.8721    
    442100  -3570084.8     -3570101.3      16.478705      295.78843      2261.6172    
    442200  -3570084.6     -3570101.3      16.63563       298.60519     -883.66381    
    442300  -3570084.4     -3570102        17.545994      314.94598      2410.1032    
    442400  -3570084.3     -3570102.1      17.77864       319.12191     -586.28717    
    442500  -3570084.1     -3570100.9      16.811733      301.76618     -133.92825    
    442600  -3570083.9     -3570101.4      17.51008       314.30132      2730.2847    
    442700  -3570083.8     -3570100.9      17.11384       307.18893     -1621.9426    
    442800  -3570083.6     -3570100.8      17.229529      309.26551      3322.2275    
    442900  -3570083.4     -3570101.1      17.705715      317.81293     -3376.2842    
    443000  -3570083.1     -3570100.3      17.199973      308.73499      989.1366     
    443100  -3570083       -3570100.4      17.414505      312.58579      1358.2186    
    443200  -3570082.7     -3570099.8      17.13878       307.6366       640.6486     
    443300  -3570082.5     -3570099.6      17.068321      306.37188      213.15959    
    443400  -3570082.4     -3570100.7      18.29705       328.42724     -3515.7465    
    443500  -3570082.4     -3570099.9      17.52668       314.5993       438.8886     
    443600  -3570082.5     -3570100.2      17.616342      316.2087       1695.0907    
    443700  -3570082.8     -3570100.6      17.808115      319.65098      1500.7929    
    443800  -3570083.1     -3570100.1      16.97996       304.78582     -470.89031    
    443900  -3570083.6     -3570100.6      17.03916       305.84844     -320.01292    
    444000  -3570084       -3570101        16.949693      304.24253      553.05957    
    444100  -3570084.4     -3570101.6      17.178985      308.35826     -60.758969    
    444200  -3570084.7     -3570100.8      16.104435      289.07037     -1340.3105    
    444300  -3570084.9     -3570101.5      16.59995       297.96473      499.50193    
    444400  -3570085       -3570101.5      16.418494      294.70766      2096.2119    
    444500  -3570085.2     -3570102.2      16.931409      303.91435     -1516.4783    
    444600  -3570085.3     -3570101.2      15.939704      286.1135      -344.40673    
    444700  -3570085.4     -3570101.7      16.308507      292.7334      -3140.2306    
    444800  -3570085.5     -3570102.6      17.124394      307.37837      3177.5976    
    444900  -3570085.6     -3570101.7      16.102779      289.04065     -1964.77      
    445000  -3570085.7     -3570101.6      15.905191      285.494       -221.9394     
    445100  -3570085.7     -3570102.7      17.063777      306.29032     -691.19283    
    445200  -3570085.7     -3570102.3      16.561232      297.26977     -709.06021    
    445300  -3570085.7     -3570102.2      16.501022      296.18901     -812.41525    
    445400  -3570085.7     -3570102.4      16.723672      300.18552      356.90722    
    445500  -3570085.6     -3570101.4      15.836001      284.25206     -1514.6712    
    445600  -3570085.5     -3570101.7      16.205941      290.89237      417.84737    
    445700  -3570085.4     -3570102.3      16.889049      303.15399     -1624.13      
    445800  -3570085.2     -3570101        15.756492      282.8249       2254.6072    
    445900  -3570085       -3570101.6      16.601071      297.98485     -978.84722    
    446000  -3570084.7     -3570100.7      15.978625      286.81212      988.91106    
    446100  -3570084.4     -3570102.4      17.92227       321.70003     -1934.6125    
    446200  -3570084.1     -3570101.7      17.549237      315.0042       2063.1654    
    446300  -3570083.8     -3570101.3      17.499751      314.11592      1195.2462    
    446400  -3570083.6     -3570099.8      16.243836      291.57259     -2725.4607    
    446500  -3570083.4     -3570099.9      16.492046      296.02789      3662.6029    
    446600  -3570083.3     -3570101        17.692831      317.58167     -1697.3544    
    446700  -3570083.3     -3570100.1      16.827245      302.04462      93.531742    
    446800  -3570083.3     -3570100.9      17.634752      316.53917     -878.19621    
    446900  -3570083.4     -3570101.4      17.96589       322.483        107.12036    
    447000  -3570083.6     -3570101.1      17.474317      313.65939     -646.09544    
    447100  -3570083.8     -3570101.3      17.503413      314.18166      19.669828    
    447200  -3570084.1     -3570100.4      16.308384      292.7312       92.628433    
    447300  -3570084.4     -3570101.3      16.908471      303.5026      -1970.3391    
    447400  -3570084.6     -3570102        17.329131      311.05334      153.12549    
    447500  -3570084.9     -3570101        16.11282       289.22089      56.115426    
    447600  -3570085       -3570100.8      15.856796      284.62531      77.300247    
    447700  -3570085.1     -3570101.2      16.115828      289.27488     -946.05331    
    447800  -3570085.2     -3570102.5      17.338476      311.22109      719.34054    
    447900  -3570085.1     -3570101.3      16.199028      290.76829     -2067.7361    
    448000  -3570085.1     -3570101.8      16.673142      299.27852      1677.633     
    448100  -3570085.2     -3570101.1      15.917122      285.70815      143.63889    
    448200  -3570085.1     -3570101.6      16.540357      296.89506      413.95131    
    448300  -3570085.1     -3570101.7      16.638972      298.66518     -1621.0751    
    448400  -3570085.1     -3570101.8      16.678139      299.36822      1460.5314    
    448500  -3570085.1     -3570101.3      16.240403      291.51097     -2280.8497    
    448600  -3570085.1     -3570101.7      16.582968      297.65992      890.67068    
    448700  -3570085.1     -3570102        16.906599      303.469        777.66606    
    448800  -3570085.2     -3570102.4      17.264255      309.88884     -17.390143    
    448900  -3570085.2     -3570101.4      16.194922      290.69459     -1434.2848    
    449000  -3570085.3     -3570102.4      17.126228      307.41128     -1991.4233    
    449100  -3570085.3     -3570102.7      17.353129      311.48409      2585.3462    
    449200  -3570085.4     -3570101.7      16.286656      292.34119     -815.36413    
    449300  -3570085.5     -3570102        16.46687       295.57599      493.57662    
    449400  -3570085.6     -3570102.2      16.590431      297.79388      637.47294    
    449500  -3570085.8     -3570101.9      16.148837      289.86738      1228.1785    
    449600  -3570085.9     -3570102.3      16.411113      294.57515     -781.04712    
    449700  -3570086.1     -3570102        15.91103       285.59881     -304.74986    
    449800  -3570086.2     -3570103        16.823013      301.96866     -151.42787    
    449900  -3570086.4     -3570103.3      16.925515      303.80854     -132.53696    
    450000  -3570086.5     -3570103.1      16.571024      297.44553      1311.0113    
Loop time of 4866.68 on 72 procs for 50000 steps with 432 atoms

Performance: 1.775 ns/day, 13.519 hours/ns, 10.274 timesteps/s, 4.438 katom-step/s
89.1% CPU use with 72 MPI tasks x 1 OpenMP threads

MPI task timing breakdown:
Section |  min time  |  avg time  |  max time  |%varavg| %total
---------------------------------------------------------------
Pair    | 2911.2     | 3679.7     | 4772.8     | 607.3 | 75.61
Bond    | 0.016359   | 0.028417   | 0.040195   |   3.0 |  0.00
Neigh   | 0.027744   | 0.033688   | 0.046686   |   2.0 |  0.00
Comm    | 91.617     | 1184.7     | 1953.2     |1070.3 | 24.34
Output  | 0.039294   | 0.040784   | 0.1295     |   5.2 |  0.00
Modify  | 1.6966     | 1.7653     | 1.8332     |   2.4 |  0.04
Other   |            | 0.4045     |            |       |  0.01

Nlocal:              6 ave          10 max           3 min
Histogram: 2 9 12 0 22 20 0 6 0 1
Nghost:        410.208 ave         419 max         404 min
Histogram: 5 4 13 13 15 4 9 4 3 2
Neighs:              0 ave           0 max           0 min
Histogram: 72 0 0 0 0 0 0 0 0 0
FullNghs:        544.5 ave         917 max         281 min
Histogram: 2 9 12 2 20 20 3 3 0 1

Total # of neighbors = 39204
Ave neighs/atom = 90.75
Ave special neighs/atom = 0
Neighbor list builds = 938
Dangerous builds = 0
System init for write_restart ...
                                  
================================= 
Global information about the job: 
================================= 
  
Job owner: thuss(30998)
Job name:  MD_short
Node list: ravc4021
Job start: Fri Feb 24 12:08:16 CET 2023
Job end:   Sat Feb 25 00:44:53 CET 2023
Work dir:  /ptmp/thuss/naps/sampl_compar/melt_quench/0/./
Command:   /raven/ptmp/thuss/naps/sampl_compar/melt_quench/0/geom.job
  
  
  
==========================================================================================
Information on jobsteps (Note: MaxRSS/AveRSS is the maximum/average over all 
tasks of the per-task memory high-water marks; cf. "man sacct"): 
==========================================================================================
  
JobID            JobName NNodes NTasks  NCPUS        0.00M        0.00M    Elapsed ExitCode
------------- ---------- ------ ------ ------ ------------ ------------ ---------- --------
4282871         MD_short      1           144                             12:36:37      0:0
4282871.0            lmp      1     72     72      115.04M      111.32M   12:36:32      0:0
  
Maximum memory per node: 8.684863 GB (defined as MaxRSS*Ntasks/NNodes)
CPU utilization: 100.0 %
  
