LAMMPS (15 Sep 2022)
  using 1 OpenMP thread(s) per MPI task
# /home/carsten/Documents/PhD/LPS/MD_GAP/polarise/MD_GAP_CS.in (written by LAMMPScs 2.1 on Mon Jun 17 10:42:15 2019)

# ------------------------------ INITIALIZATION -------------------------------
units      metal
dimension  3
boundary   p p p
atom_style full
newton     on off
# ----------------------------- ATOM DEFINITION -------------------------------
read_data geom.data
Reading data file ...
  orthogonal box = (0 0 0) to (21.734239 21.737162 22.149205)
  3 by 4 by 6 MPI processor grid
  reading atoms ...
  400 atoms
Finding 1-2 1-3 1-4 neighbors ...
  special bond factors lj:    0        0        0       
  special bond factors coul:  0        0        0       
     0 = max # of 1-2 neighbors
     0 = max # of 1-3 neighbors
     0 = max # of 1-4 neighbors
     1 = max # of special neighbors
  special bonds CPU = 0.002 seconds
  read_data CPU = 0.026 seconds
timer timeout 24:00:00 every 100
New timer settings: style=normal  mode=nosync  timeout=00:00:00
# ------------------------------ ATOM GROUPING --------------------------------
group Li_atoms type 1
150 atoms in group Li_atoms
group P_atoms type 2
50 atoms in group P_atoms
group S_atoms type 3
200 atoms in group S_atoms

neighbor 2.0 bin
comm_modify vel yes

# ------------------------- GAP Potential ---------------------------


pair_style quip
pair_coeff      * * /u/thuss/templates/gaps/naps/gp_2b_soap.xml "IP GAP label=GAP_2023_2_8_0_13_56_52_159" 11 15 16

reset_timestep 0
# ------------------------ DEFINE COMPUTES --------------------------

compute thermo_press_lmp all pressure thermo_temp
compute ke_tech all ke
compute epot_tech all pe
compute vacf_p P_atoms vacf
compute vacf_s S_atoms vacf
compute msd_li Li_atoms msd com yes
variable etotal_tech equal c_ke_tech+c_epot_tech
variable temp_phys equal c_thermo_temp
variable ke_phys equal ke
variable etot_phys equal etotal
variable vol_v equal vol
variable T equal "500"

# ---------------------------------- TIMESTEP ------------------------------------
timestep 0.002

# ------------------------ RUNS ---------------------------
dump equiatoms all atom 500 geom.dump
dump_modify equiatoms scale no

thermo 100 # every 0.1
thermo_style custom step etotal pe ke temp press

fix therm_equ all nvt temp 300 600 1.0
run 50000
Neighbor list info ...
  update: every = 1 steps, delay = 0 steps, check = yes
  max neighbors/atom: 2000, page size: 100000
  master list distance cutoff = 8
  ghost atom cutoff = 8
  binsize = 4, bins = 6 6 6
  1 neighbor lists, perpetual/occasional/extra = 1 0 0
  (1) pair quip, perpetual
      attributes: full, newton on
      pair build: full/bin
      stencil: full/bin/3d
      bin: standard
Per MPI rank memory allocation (min/avg/max) = 8.036 | 8.036 | 8.036 Mbytes
   Step         TotEng         PotEng         KinEng          Temp          Press     
         0  -3305352.6     -3305352.6      0              0              71094.273    
       100  -3305369.5     -3305500.5      131.05587      2541.0835      21665.533    
       200  -3305395.3     -3305504.6      109.33997      2120.0272      16164.348    
       300  -3305421.8     -3305519        97.168186      1884.0246      13761.714    
       400  -3305446       -3305534.8      88.761776      1721.03        10038.779    
       500  -3305467.3     -3305546.2      78.842977      1528.7113      9583.9285    
       600  -3305486.4     -3305554.6      68.199232      1322.3364      603.58379    
       700  -3305502.6     -3305563.4      60.850374      1179.8471      4122.6696    
       800  -3305517       -3305572.7      55.680005      1079.5972      3047.306     
       900  -3305529.4     -3305583.1      53.723604      1041.6639     -691.92024    
      1000  -3305540.2     -3305587.1      46.898615      909.33203     -2526.5909    
      1100  -3305550.1     -3305591.7      41.61873       806.95866     -968.63139    
      1200  -3305558.8     -3305599        40.14489       778.38191      326.74301    
      1300  -3305566.5     -3305603.7      37.212266      721.52034     -5047.349     
      1400  -3305573.2     -3305606.5      33.281081      645.29737     -2246.0963    
      1500  -3305579       -3305610.3      31.274113      606.38363     -1908.0169    
      1600  -3305584.2     -3305612.4      28.20913       546.95571     -7664.9109    
      1700  -3305588.8     -3305615        26.25687       509.10273     -7306.2466    
      1800  -3305592.9     -3305618.3      25.386695      492.23062     -7220.8844    
      1900  -3305596.5     -3305618.6      22.02083       426.96881     -6463.4426    
      2000  -3305599.7     -3305621        21.305737      413.10364     -3811.5888    
      2100  -3305602.5     -3305622.1      19.595624      379.94572     -7126.3406    
      2200  -3305604.9     -3305623.7      18.763068      363.80304     -5509.9542    
      2300  -3305607.1     -3305623.4      16.329288      316.61372     -7459.3876    
      2400  -3305609       -3305625.6      16.651413      322.8595      -8510.9572    
      2500  -3305610.7     -3305628        17.372965      336.84988     -5299.9939    
      2600  -3305612.2     -3305629        16.812132      325.97573     -8641.0322    
      2700  -3305613.5     -3305629.3      15.832454      306.98044     -5582.5738    
      2800  -3305614.6     -3305630.2      15.610136      302.66985     -6498.2392    
      2900  -3305615.6     -3305630.7      15.078673      292.36515     -7497.3203    
      3000  -3305616.4     -3305630.3      13.879595      269.11583     -7905.4913    
      3100  -3305617       -3305630.5      13.495674      261.67187     -8283.829     
      3200  -3305617.4     -3305631.8      14.424915      279.68922     -5735.6757    
      3300  -3305617.7     -3305631.6      13.920173      269.90261     -7989.0243    
      3400  -3305617.8     -3305632.4      14.59151       282.91939     -5253.8039    
      3500  -3305617.7     -3305631.5      13.844749      268.4402      -5911.6531    
      3600  -3305617.5     -3305631.8      14.342829      278.09763     -8878.9401    
      3700  -3305617.1     -3305631        13.894222      269.39944     -6686.6304    
      3800  -3305616.5     -3305630.6      14.107365      273.53214     -4765.7331    
      3900  -3305615.8     -3305631.1      15.277018      296.21091     -7866.3187    
      4000  -3305615       -3305630.6      15.595834      302.39253     -7365.8711    
      4100  -3305614.2     -3305629.8      15.602285      302.51763     -6347.1657    
      4200  -3305613.3     -3305629.7      16.418223      318.3381      -6134.1826    
      4300  -3305612.4     -3305629.9      17.483997      339.00273     -5633.4124    
      4400  -3305611.5     -3305628.8      17.252925      334.52239     -4978.6699    
      4500  -3305610.8     -3305629.2      18.455477      357.83905     -6416.6668    
      4600  -3305610.2     -3305628.9      18.685274      362.29467     -7437.3878    
      4700  -3305609.7     -3305629.9      20.138796      390.47745     -3952.5105    
      4800  -3305609.5     -3305627.5      18.047508      349.92882     -6400.017     
      4900  -3305609.4     -3305628.5      19.162718      371.55198     -5693.0081    
      5000  -3305609.5     -3305628.9      19.370886      375.58822     -1968.7511    
      5100  -3305609.9     -3305629.9      19.977709      387.3541      -7577.0546    
      5200  -3305610.4     -3305629.6      19.159904      371.49741     -5026.844     
      5300  -3305611.1     -3305628.9      17.78995       344.93494     -8415.0833    
      5400  -3305611.8     -3305631.3      19.503001      378.14982     -7591.082     
      5500  -3305612.7     -3305631        18.346467      355.72543     -6151.9371    
      5600  -3305613.5     -3305631        17.45591       338.45813     -6396.1775    
      5700  -3305614.4     -3305632.4      17.93751       347.79603     -5524.9139    
      5800  -3305615.2     -3305631.8      16.604648      321.95275     -6982.16      
      5900  -3305616       -3305632.7      16.750928      324.78902     -7335.8715    
      6000  -3305616.6     -3305632.7      16.04072       311.01858     -5940.7428    
      6100  -3305617.1     -3305633.4      16.261888      315.30687     -7399.2316    
      6200  -3305617.6     -3305633.4      15.87759       307.85558     -5669.3891    
      6300  -3305617.9     -3305633.2      15.380762      298.22245     -5613.2071    
      6400  -3305618       -3305634.1      16.132448      312.79711     -6279.2969    
      6500  -3305618       -3305634.3      16.27049       315.47365     -6836.2359    
      6600  -3305617.9     -3305632.7      14.800837      286.97809     -5189.9984    
      6700  -3305617.7     -3305633.1      15.413617      298.85947     -4975.2725    
      6800  -3305617.3     -3305633.7      16.458008      319.10949     -5611.2602    
      6900  -3305616.8     -3305632.3      15.561968      301.7359      -4998.953     
      7000  -3305616.2     -3305632.8      16.649185      322.81628     -5200.3847    
      7100  -3305615.5     -3305631.7      16.208415      314.27005     -4981.1964    
      7200  -3305614.7     -3305631.7      16.974216      329.11842     -3375.0159    
      7300  -3305613.9     -3305632.5      18.596434      360.57212     -5215.1638    
      7400  -3305613.2     -3305630.8      17.622709      341.69226     -3929.3591    
      7500  -3305612.5     -3305632.3      19.756603      383.067       -2760.0445    
      7600  -3305611.9     -3305630.7      18.841556      365.32487     -6022.724     
      7700  -3305611.4     -3305630.6      19.228728      372.83186     -4781.4703    
      7800  -3305610.9     -3305629.7      18.763331      363.80814     -3299.2819    
      7900  -3305610.6     -3305631.4      20.743822      402.2085      -7414.6609    
      8000  -3305610.4     -3305630.1      19.72119       382.38036     -6576.0479    
      8100  -3305610.4     -3305629.7      19.342832      375.04426     -5752.6486    
      8200  -3305610.5     -3305631.2      20.732244      401.984       -4774.2254    
      8300  -3305610.7     -3305629.9      19.196639      372.20968     -6340.7356    
      8400  -3305611.1     -3305630.4      19.372686      375.62312     -6050.7216    
      8500  -3305611.6     -3305629.9      18.346791      355.7317      -5678.2553    
      8600  -3305612.1     -3305630.9      18.769659      363.93083     -6786.3274    
      8700  -3305612.7     -3305632.1      19.355031      375.2808      -2150.9596    
      8800  -3305613.4     -3305631.4      18.017403      349.3451      -5136.309     
      8900  -3305614.1     -3305632.6      18.547786      359.62887     -6254.4174    
      9000  -3305614.7     -3305632.4      17.707079      343.32813     -4732.629     
      9100  -3305615.2     -3305632.2      17.017909      329.96561     -6177.4416    
      9200  -3305615.7     -3305632.6      16.926366      328.19063     -3014.6051    
      9300  -3305616.1     -3305633.9      17.810513      345.33364     -3712.2635    
      9400  -3305616.4     -3305633.7      17.260842      334.6759      -4238.8543    
      9500  -3305616.7     -3305633.3      16.6128        322.11081     -2848.3884    
      9600  -3305616.8     -3305634.2      17.412988      337.62592     -7347.7914    
      9700  -3305616.9     -3305633.8      16.96767       328.9915      -5584.7116    
      9800  -3305616.8     -3305633.7      16.878031      327.25346     -4672.1515    
      9900  -3305616.6     -3305633.4      16.791544      325.57654     -6212.7392    
     10000  -3305616.3     -3305633.1      16.834801      326.41527     -5323.1438    
     10100  -3305615.8     -3305633.1      17.268399      334.82243     -4162.8634    
     10200  -3305615.3     -3305632.7      17.430173      337.95912     -5786.165     
     10300  -3305614.7     -3305632.4      17.681759      342.83719     -4322.1161    
     10400  -3305614       -3305631.9      17.910095      347.26448     -7805.1472    
     10500  -3305613.3     -3305632.8      19.476294      377.632       -4328.1186    
     10600  -3305612.6     -3305632.1      19.479026      377.68498     -6017.8007    
     10700  -3305612       -3305631.9      19.965428      387.11598     -6167.4438    
     10800  -3305611.3     -3305630.9      19.57437       379.53362     -5160.9065    
     10900  -3305610.7     -3305630.2      19.502242      378.13511     -4325.5862    
     11000  -3305610.2     -3305629.9      19.689458      381.76511     -5409.2825    
     11100  -3305609.8     -3305630.9      21.130972      409.71508     -5448.0883    
     11200  -3305609.6     -3305630.3      20.711883      401.58923      216.71311    
     11300  -3305609.5     -3305629.7      20.253518      392.70184     -2149.952     
     11400  -3305609.5     -3305630.3      20.752046      402.36795     -4884.6799    
     11500  -3305609.8     -3305630.9      21.140054      409.89117     -3544.2867    
     11600  -3305610.1     -3305630        19.910616      386.05321     -3230.8741    
     11700  -3305610.6     -3305632        21.360458      414.16464     -4418.9914    
     11800  -3305611.2     -3305631.6      20.406633      395.67064     -3178.9159    
     11900  -3305611.9     -3305632.4      20.563088      398.70419     -5963.9905    
     12000  -3305612.6     -3305633.2      20.558743      398.61995     -4000.9123    
     12100  -3305613.3     -3305632.1      18.845057      365.39275     -5738.3847    
     12200  -3305613.9     -3305631.5      17.614021      341.5238      -4669.9857    
     12300  -3305614.5     -3305633.8      19.297023      374.15606     -4161.1005    
     12400  -3305615       -3305633.1      18.146703      351.85214     -3579.7202    
     12500  -3305615.4     -3305632.8      17.415631      337.67716     -2854.9047    
     12600  -3305615.7     -3305633.6      17.886118      346.79959     -4430.3424    
     12700  -3305616       -3305633.6      17.689005      342.97769     -3501.219     
     12800  -3305616.1     -3305633.1      16.977062      329.17361     -5518.2208    
     12900  -3305616.1     -3305634        17.867924      346.4468      -3145.9315    
     13000  -3305616       -3305633.3      17.277854      335.00576     -3143.9923    
     13100  -3305615.8     -3305633        17.212096      333.73074     -4477.1962    
     13200  -3305615.4     -3305633.9      18.524085      359.16931     -2088.1197    
     13300  -3305615       -3305633        17.974115      348.50577     -5934.862     
     13400  -3305614.5     -3305633.3      18.878928      366.04948     -5023.3543    
     13500  -3305613.8     -3305632.3      18.441578      357.56956     -1406.5638    
     13600  -3305613.1     -3305632.1      19.006691      368.52673     -3875.2849    
     13700  -3305612.4     -3305631.8      19.351883      375.21975     -5994.2689    
     13800  -3305611.7     -3305631.6      19.887515      385.60528     -4788.4862    
     13900  -3305611       -3305631        19.954468      386.90347     -1267.4524    
     14000  -3305610.3     -3305630.8      20.417643      395.88411     -4584.8794    
     14100  -3305609.7     -3305630.8      21.079455      408.71619     -3922.1793    
     14200  -3305609.2     -3305631.2      22.008912      426.73772     -2751.3292    
     14300  -3305608.8     -3305630        21.189211      410.84429     -5899.1929    
     14400  -3305608.4     -3305629.4      20.985395      406.89243     -4163.556     
     14500  -3305608.2     -3305629.8      21.554297      417.92305     -5349.1431    
     14600  -3305608.2     -3305629.9      21.693794      420.6278      -4242.1354    
     14700  -3305608.3     -3305629.4      21.14724       410.03049     -3576.517     
     14800  -3305608.4     -3305630.3      21.844975      423.55911     -3015.9583    
     14900  -3305608.7     -3305630.4      21.711271      420.96667     -4910.7115    
     15000  -3305609.1     -3305629.1      19.961816      387.04594     -6616.4958    
     15100  -3305609.6     -3305631        21.41659       415.25301     -2542.9159    
     15200  -3305610.1     -3305630.7      20.600644      399.43237     -3537.6774    
     15300  -3305610.6     -3305629.9      19.332648      374.8468      -4638.1483    
     15400  -3305611.1     -3305631        19.936316      386.5515      -4610.172     
     15500  -3305611.6     -3305630.8      19.215617      372.57765     -4193.2196    
     15600  -3305612.1     -3305631.6      19.525759      378.5911      -6112.2687    
     15700  -3305612.4     -3305631        18.584719      360.34496     -6290.4313    
     15800  -3305612.7     -3305632.2      19.440891      376.94556     -4785.6533    
     15900  -3305612.9     -3305631.8      18.867496      365.82782     -4013.8298    
     16000  -3305613       -3305631.2      18.158746      352.08565     -5559.6215    
     16100  -3305613       -3305632.4      19.414827      376.4402      -4643.384     
     16200  -3305612.9     -3305631.8      18.901625      366.48957     -4989.4649    
     16300  -3305612.7     -3305631.3      18.633612      361.29297     -3606.9877    
     16400  -3305612.3     -3305632        19.750572      382.95007     -4145.6433    
     16500  -3305611.8     -3305631.6      19.715639      382.27274     -5080.7127    
     16600  -3305611.3     -3305631.2      19.879097      385.44208     -4832.9921    
     16700  -3305610.7     -3305630.6      19.854094      384.95728     -3066.9824    
     16800  -3305610.1     -3305630.1      20.095265      389.63342     -4200.0044    
     16900  -3305609.4     -3305629.7      20.322833      394.04581     -3802.973     
     17000  -3305608.7     -3305630.1      21.39822       414.89683     -4085.3574    
     17100  -3305608.1     -3305629.6      21.511848      417.09999     -1933.4538    
     17200  -3305607.5     -3305628.6      21.115138      409.40805     -3417.5718    
     17300  -3305607.1     -3305631.1      24.032118      465.9663      -6315.4789    
     17400  -3305606.8     -3305629.9      23.112473      448.13502     -4177.1946    
     17500  -3305606.7     -3305629.2      22.498694      436.23426     -3766.9904    
     17600  -3305606.7     -3305630.6      23.834229      462.12938     -3515.5792    
     17700  -3305606.9     -3305630        23.157353      449.00521     -4011.1967    
     17800  -3305607.2     -3305629.4      22.241762      431.25252     -3848.1988    
     17900  -3305607.6     -3305630.1      22.485597      435.98032     -3610.4169    
     18000  -3305608.2     -3305629.9      21.780633      422.31155     -4364.2422    
     18100  -3305608.8     -3305630.7      21.930647      425.22022     -1460.9544    
     18200  -3305609.5     -3305631        21.552465      417.88753     -5228.976     
     18300  -3305610.1     -3305631        20.836004      403.99584     -6453.5682    
     18400  -3305610.8     -3305632.2      21.393782      414.81079     -617.74345    
     18500  -3305611.4     -3305632.2      20.720404      401.75443     -2369.1531    
     18600  -3305612       -3305631.2      19.270611      373.64394     -4132.5464    
     18700  -3305612.4     -3305632.4      19.946581      386.75053     -3617.5299    
     18800  -3305612.8     -3305632.1      19.367941      375.53111     -4501.9206    
     18900  -3305613       -3305633.9      20.882352      404.8945      -2895.9368    
     19000  -3305613.2     -3305633        19.871614      385.29699     -4558.1301    
     19100  -3305613.2     -3305632.3      19.14833       371.273       -4304.0859    
     19200  -3305613       -3305633.8      20.730478      401.94976     -1210.8475    
     19300  -3305612.8     -3305632.5      19.665445      381.29951     -5367.3285    
     19400  -3305612.4     -3305632.3      19.91808       386.19792     -3526.9541    
     19500  -3305611.9     -3305632.4      20.47238       396.94542     -1815.0721    
     19600  -3305611.3     -3305631        19.731559      382.58141     -6897.6562    
     19700  -3305610.7     -3305631.5      20.862821      404.5158      -2552.4595    
     19800  -3305610       -3305631.3      21.324034      413.45841     -4709.1562    
     19900  -3305609.2     -3305631        21.731567      421.3602      -4806.4423    
     20000  -3305608.5     -3305629.8      21.281356      412.63091     -6605.4681    
     20100  -3305607.7     -3305630.4      22.619277      438.57228     -6711.4242    
     20200  -3305607       -3305629.1      22.126753      429.02258     -1505.5668    
     20300  -3305606.3     -3305630.2      23.835172      462.14765     -7174.154     
     20400  -3305605.7     -3305629        23.322813      452.21337     -2341.9828    
     20500  -3305605.2     -3305627.2      21.982304      426.22181     -344.13929    
     20600  -3305604.8     -3305627.9      23.03768       446.68483     -6105.0811    
     20700  -3305604.6     -3305628.3      23.732818      460.16308     -2365.2007    
     20800  -3305604.5     -3305627.9      23.463715      454.94536     -4103.9951    
     20900  -3305604.5     -3305628        23.512555      455.89234     -3644.4955    
     21000  -3305604.6     -3305627.9      23.320446      452.16747     -4652.4995    
     21100  -3305604.8     -3305627.4      22.649902      439.16608     -5097.711     
     21200  -3305605.1     -3305628.8      23.705768      459.63859     -4244.7573    
     21300  -3305605.5     -3305628        22.44453       435.18406     -4549.409     
     21400  -3305606       -3305629        22.984407      445.65192     -4559.4051    
     21500  -3305606.5     -3305628.8      22.288992      432.16829     -4655.9137    
     21600  -3305607.1     -3305630.2      23.085474      447.61152     -6565.8763    
     21700  -3305607.7     -3305629.5      21.864411      423.93596     -6057.0277    
     21800  -3305608.2     -3305629.9      21.739514      421.51429     -4202.7233    
     21900  -3305608.7     -3305630.6      21.93946       425.3911      -4540.7763    
     22000  -3305609.1     -3305630.2      21.110578      409.31964     -4962.0654    
     22100  -3305609.4     -3305630.5      21.13909       409.87248     -1331.4661    
     22200  -3305609.6     -3305630.8      21.199349      411.04085     -6678.5827    
     22300  -3305609.7     -3305630.3      20.554397      398.53568     -3353.109     
     22400  -3305609.8     -3305631.6      21.803565      422.75618     -1902.0066    
     22500  -3305609.8     -3305631.4      21.636506      419.51702     -4260.3183    
     22600  -3305609.6     -3305631.6      22.017852      426.91107     -5930.8632    
     22700  -3305609.4     -3305631.4      22.034235      427.22873     -3280.6941    
     22800  -3305609.1     -3305629.9      20.803654      403.36861     -4798.3561    
     22900  -3305608.7     -3305629.8      21.152112      410.12496     -4857.1584    
     23000  -3305608.2     -3305630.9      22.736267      440.84064     -3459.0651    
     23100  -3305607.7     -3305630.6      22.954714      445.07618     -3157.695     
     23200  -3305607.1     -3305629.7      22.512053      436.49328     -5645.4587    
     23300  -3305606.6     -3305629.2      22.628514      438.75139     -3607.7101    
     23400  -3305606       -3305628.4      22.385069      434.03115     -3616.2742    
     23500  -3305605.5     -3305627.9      22.33874       433.13286     -4914.4202    
     23600  -3305605       -3305628.9      23.90659       463.53241     -6294.5909    
     23700  -3305604.6     -3305627.9      23.301951      451.80887     -3938.5931    
     23800  -3305604.2     -3305628.7      24.457578      474.21568     -2786.6481    
     23900  -3305604       -3305627.7      23.716274      459.8423      -5673.6884    
     24000  -3305603.9     -3305628        24.127991      467.82522     -3868.8288    
     24100  -3305603.9     -3305627.7      23.780761      461.09267     -2641.2662    
     24200  -3305604.1     -3305629        24.913011      483.04621     -6282.2649    
     24300  -3305604.4     -3305629        24.635332      477.66221     -4376.5516    
     24400  -3305604.8     -3305629        24.201438      469.2493      -3643.5665    
     24500  -3305605.3     -3305627.6      22.328192      432.92834     -5037.7821    
     24600  -3305605.9     -3305628.4      22.499516      436.2502      -6093.4798    
     24700  -3305606.4     -3305629.1      22.748388      441.07565     -3057.7504    
     24800  -3305606.9     -3305630.4      23.472361      455.11299     -5552.3455    
     24900  -3305607.4     -3305630.4      22.913786      444.2826      -2548.4508    
     25000  -3305607.9     -3305631.1      23.180042      449.44514     -5746.9104    
     25100  -3305608.4     -3305631        22.577493      437.76213     -2589.3586    
     25200  -3305608.8     -3305631.5      22.717436      440.47553     -4778.5541    
     25300  -3305609.1     -3305629.6      20.564064      398.72311     -3640.1586    
     25400  -3305609.3     -3305630.7      21.388533      414.70901     -4841.5485    
     25500  -3305609.4     -3305630.3      20.873118      404.71546     -5711.7143    
     25600  -3305609.4     -3305630.9      21.475154      416.38852     -1926.0964    
     25700  -3305609.3     -3305631.2      21.943099      425.46166     -4926.5403    
     25800  -3305609.1     -3305632.3      23.28414       451.46353     -5189.7658    
     25900  -3305608.8     -3305630        21.18212       410.70679     -3444.4407    
     26000  -3305608.4     -3305631.4      23.02869       446.51052     -4874.1991    
     26100  -3305608       -3305630.7      22.718329      440.49283     -4247.2339    
     26200  -3305607.5     -3305629.7      22.24084       431.23465     -4810.1361    
     26300  -3305606.9     -3305630.7      23.739763      460.29774     -5135.8738    
     26400  -3305606.4     -3305630.3      23.877907      462.97626     -6046.0201    
     26500  -3305605.8     -3305630.1      24.323596      471.61786     -4796.8243    
     26600  -3305605.2     -3305628.1      22.919397      444.3914      -3682.563     
     26700  -3305604.6     -3305628.5      23.821961      461.8915      -4855.3809    
     26800  -3305604.1     -3305630.2      26.154812      507.1239      -5556.1894    
     26900  -3305603.6     -3305627.3      23.686386      459.26279     -2714.8849    
     27000  -3305603.2     -3305628.7      25.474592      493.9349      -5011.0267    
     27100  -3305602.9     -3305626        23.087502      447.65085     -4176.4523    
     27200  -3305602.7     -3305628.4      25.670404      497.73155     -3157.2746    
     27300  -3305602.6     -3305628.2      25.649458      497.32542     -5356.9624    
     27400  -3305602.6     -3305627.7      25.068945      486.06967     -6082.7145    
     27500  -3305602.7     -3305627.6      24.883628      482.4765      -3643.8505    
     27600  -3305602.9     -3305627.3      24.403068      473.15878     -3916.0235    
     27700  -3305603.2     -3305627.3      24.133515      467.93233     -4575.4283    
     27800  -3305603.6     -3305628.9      25.325944      491.0527      -2585.9835    
     27900  -3305604       -3305629.3      25.324241      491.01969     -4409.3811    
     28000  -3305604.4     -3305629.2      24.760418      480.08755     -3802.9432    
     28100  -3305604.9     -3305628.6      23.667456      458.89576     -4923.4866    
     28200  -3305605.4     -3305629.3      23.865608      462.7378      -5318.0165    
     28300  -3305605.8     -3305630.4      24.54521       475.91481     -3433.1471    
     28400  -3305606.3     -3305630.1      23.79089       461.28906     -3611.0352    
     28500  -3305606.7     -3305631        24.286804      470.90449     -3261.9316    
     28600  -3305607.1     -3305631.6      24.49531       474.94728     -3628.3389    
     28700  -3305607.4     -3305631.1      23.731037      460.12855     -4543.3965    
     28800  -3305607.7     -3305631.3      23.657259      458.69805     -5847.8479    
     28900  -3305607.9     -3305631        23.114988      448.18378     -4153.7386    
     29000  -3305608       -3305630.5      22.504045      436.33801     -5375.2023    
     29100  -3305607.9     -3305630.6      22.649217      439.1528      -3362.197     
     29200  -3305607.8     -3305631.4      23.622978      458.03337     -3136.675     
     29300  -3305607.6     -3305630.9      23.351672      452.77291     -3866.6605    
     29400  -3305607.2     -3305631.6      24.348462      472.09999     -1877.2787    
     29500  -3305606.8     -3305630        23.254515      450.88911     -5112.0509    
     29600  -3305606.3     -3305631.2      24.955506      483.87017     -3579.2099    
     29700  -3305605.7     -3305628.7      23.085049      447.60329     -5489.8879    
     29800  -3305605       -3305629        23.998599      465.31639     -3459.924     
     29900  -3305604.3     -3305628.8      24.56304       476.26052     -4039.9687    
     30000  -3305603.5     -3305627.6      24.071941      466.73845     -4597.9397    
     30100  -3305602.9     -3305629.3      26.460886      513.05846     -2960.0222    
     30200  -3305602.3     -3305627.9      25.660161      497.53295     -3251.4859    
     30300  -3305601.7     -3305628.3      26.5454        514.69713     -6055.9593    
     30400  -3305601.2     -3305626.4      25.235017      489.28968     -2286.9988    
     30500  -3305600.8     -3305625.7      24.952067      483.80349     -3939.1935    
     30600  -3305600.5     -3305628.3      27.768664      538.41537     -4187.2093    
     30700  -3305600.3     -3305628.2      27.889695      540.76209     -3936.9931    
     30800  -3305600.3     -3305626.5      26.25809       509.12638     -1202.7302    
     30900  -3305600.4     -3305626.9      26.486037      513.54611     -3618.7823    
     31000  -3305600.7     -3305628        27.349403      530.28619     -6573.5814    
     31100  -3305601.1     -3305626.1      25.058545      485.86802     -2947.0351    
     31200  -3305601.5     -3305627.3      25.799917      500.24272     -4828.3536    
     31300  -3305602       -3305626.5      24.516084      475.35007     -3607.3064    
     31400  -3305602.5     -3305627.8      25.330333      491.1378      -2040.9165    
     31500  -3305603       -3305627.5      24.499009      475.019       -4629.2723    
     31600  -3305603.5     -3305629.5      25.981227      503.75819     -3322.4194    
     31700  -3305603.9     -3305628.6      24.692466      478.76999     -5896.5884    
     31800  -3305604.2     -3305628.5      24.294224      471.04836     -6135.0444    
     31900  -3305604.5     -3305629.8      25.287876      490.3146      -4068.9691    
     32000  -3305604.6     -3305628.5      23.859076      462.61114     -6270.8901    
     32100  -3305604.7     -3305629.6      24.897705      482.74945     -3966.1326    
     32200  -3305604.7     -3305628.7      24.006186      465.4635      -2179.8134    
     32300  -3305604.5     -3305629.2      24.640851      477.76922     -6949.6408    
     32400  -3305604.3     -3305627.4      23.056563      447.05095     -4158.3971    
     32500  -3305604       -3305627.9      23.868488      462.79363     -4327.1347    
     32600  -3305603.6     -3305628.6      25.0471        485.64611     -5647.4337    
     32700  -3305603.1     -3305628.4      25.269039      489.94935     -2331.4411    
     32800  -3305602.5     -3305627.7      25.201729      488.64426     -5635.7846    
     32900  -3305601.9     -3305627.9      25.971478      503.56917     -3958.7967    
     33000  -3305601.3     -3305626.1      24.821057      481.26329     -2714.0132    
     33100  -3305600.7     -3305626.2      25.46353       493.7204      -6673.425     
     33200  -3305600.2     -3305626        25.811312      500.46365     -1947.4315    
     33300  -3305599.7     -3305626.7      27.069381      524.85676     -4433.3538    
     33400  -3305599.2     -3305627.9      28.632859      555.17153     -4749.224     
     33500  -3305598.9     -3305625.7      26.862364      520.84284     -2778.3141    
     33600  -3305598.6     -3305625.7      27.126602      525.96623     -5403.8466    
     33700  -3305598.4     -3305623.3      24.93737       483.51853     -3853.9257    
     33800  -3305598.2     -3305625.8      27.58806       534.91358     -4634.6718    
     33900  -3305598.1     -3305624.9      26.859392      520.7852      -3802.4569    
     34000  -3305598       -3305625.7      27.676586      536.63004     -5358.1638    
     34100  -3305598.1     -3305625.1      27.010537      523.7158      -6815.7247    
     34200  -3305598.2     -3305625.4      27.239932      528.16362     -3732.3494    
     34300  -3305598.4     -3305625.3      26.894927      521.47422     -3608.9883    
     34400  -3305598.6     -3305624.1      25.538945      495.18266     -812.83732    
     34500  -3305598.8     -3305625.7      26.854704      520.69432     -4339.2656    
     34600  -3305599.2     -3305626.2      27.092845      525.3117      -2604.3637    
     34700  -3305599.5     -3305624.6      25.155628      487.7504      -5295.3457    
     34800  -3305599.8     -3305626.1      26.333144      510.58162     -3430.1543    
     34900  -3305600       -3305626.8      26.739217      518.45509     -6436.7311    
     35000  -3305600.3     -3305627.3      27.038118      524.25058     -5325.8952    
     35100  -3305600.5     -3305626        25.437327      493.21235     -3852.1232    
     35200  -3305600.7     -3305627.4      26.714344      517.97282     -5337.8227    
     35300  -3305600.8     -3305626.7      25.902753      502.23663     -3736.0534    
     35400  -3305600.9     -3305626.5      25.588966      496.15252     -4547.8479    
     35500  -3305600.9     -3305626.7      25.750089      499.27659     -4794.735     
     35600  -3305600.9     -3305627.5      26.547547      514.73874     -4561.5509    
     35700  -3305600.9     -3305625.2      24.329273      471.72794     -4967.2472    
     35800  -3305600.7     -3305626.3      25.599563      496.35799     -5529.4304    
     35900  -3305600.5     -3305625.5      25.039259      485.49408     -4736.8383    
     36000  -3305600.2     -3305626.1      25.845216      501.12102     -3584.7645    
     36100  -3305599.9     -3305626.6      26.724842      518.17639     -4941.3861    
     36200  -3305599.6     -3305625.7      26.104179      506.14214     -5856.3079    
     36300  -3305599.1     -3305624.8      25.625859      496.86786     -3186.0114    
     36400  -3305598.7     -3305624.9      26.220799      508.40332     -5384.6559    
     36500  -3305598.3     -3305624.8      26.581726      515.40145     -6248.2167    
     36600  -3305597.8     -3305625.4      27.572554      534.61293     -5134.6593    
     36700  -3305597.3     -3305624.2      26.883825      521.25895     -1885.2678    
     36800  -3305596.9     -3305622.9      26.054926      505.18716     -2190.5161    
     36900  -3305596.4     -3305623.1      26.679662      517.30036     -2396.2956    
     37000  -3305596       -3305622.3      26.338271      510.68103     -3807.1435    
     37100  -3305595.7     -3305623.4      27.701188      537.10707     -3109.8987    
     37200  -3305595.3     -3305621.9      26.51443       514.09664     -5878.0404    
     37300  -3305595.1     -3305623.7      28.575207      554.05369     -4211.5207    
     37400  -3305594.9     -3305623.1      28.145593      545.72378     -4493.0089    
     37500  -3305594.8     -3305623.1      28.330624      549.31139     -2112.6798    
     37600  -3305594.8     -3305622.8      28.032076      543.52275     -1893.5513    
     37700  -3305594.8     -3305623.1      28.215325      547.07582     -2714.898     
     37800  -3305595       -3305624        29.055918      563.37434     -2268.7789    
     37900  -3305595.2     -3305623.5      28.285907      548.44436     -4765.3235    
     38000  -3305595.4     -3305624.1      28.705161      556.5734      -3464.5519    
     38100  -3305595.7     -3305623        27.31867       529.6903      -3663.4409    
     38200  -3305596.1     -3305623.8      27.760485      538.25679     -2979.0903    
     38300  -3305596.5     -3305624.7      28.244988      547.65097     -3633.1923    
     38400  -3305596.9     -3305624.1      27.260441      528.56128     -3809.042     
     38500  -3305597.3     -3305624.3      26.974454      523.01618     -3015.318     
     38600  -3305597.7     -3305624.5      26.830093      520.21712     -5208.1049    
     38700  -3305598       -3305624.6      26.592827      515.61669     -3830.447     
     38800  -3305598.2     -3305624        25.815732      500.54935     -5702.0207    
     38900  -3305598.4     -3305625.8      27.399625      531.25996     -6040.7981    
     39000  -3305598.5     -3305625        26.526095      514.3228      -3974.1999    
     39100  -3305598.5     -3305625.3      26.7625        518.90654     -6316.5254    
     39200  -3305598.4     -3305624.8      26.312117      510.17392     -6370.5553    
     39300  -3305598.3     -3305624.8      26.494863      513.71725     -1650.2373    
     39400  -3305598       -3305624.4      26.343059      510.77386     -3718.0811    
     39500  -3305597.7     -3305624.5      26.819711      520.01583     -5526.6424    
     39600  -3305597.3     -3305624.6      27.284008      529.01823     -5221.9302    
     39700  -3305596.8     -3305623.2      26.338982      510.69482     -5360.5951    
     39800  -3305596.3     -3305623.5      27.167229      526.75396     -5008.8594    
     39900  -3305595.8     -3305623.1      27.309999      529.52216     -3992.0815    
     40000  -3305595.2     -3305624.7      29.512465      572.22648     -5417.564     
     40100  -3305594.7     -3305623.1      28.381236      550.29271     -4137.5973    
     40200  -3305594.2     -3305620.9      26.714906      517.98372     -5560.3342    
     40300  -3305593.7     -3305623.9      30.127139      584.14458     -5150.3407    
     40400  -3305593.4     -3305623.4      29.989794      581.48156     -3518.5343    
     40500  -3305593.2     -3305622.9      29.721013      576.27008     -3233.0412    
     40600  -3305593       -3305621.9      28.871603      559.8006      -4536.7148    
     40700  -3305593       -3305622.7      29.737986      576.59918     -2546.7086    
     40800  -3305593       -3305622        29.028687      562.84635      497.2746     
     40900  -3305593.2     -3305621.7      28.529135      553.16038     -2929.074     
     41000  -3305593.5     -3305623.9      30.385125      589.14677     -2542.1583    
     41100  -3305593.9     -3305622.2      28.352203      549.7298      -4454.2574    
     41200  -3305594.4     -3305624.1      29.733565      576.51345     -4493.9959    
     41300  -3305595       -3305624.1      29.091203      564.05851     -3394.8339    
     41400  -3305595.5     -3305624.2      28.690192      556.28317     -4884.6628    
     41500  -3305596.1     -3305625.8      29.743669      576.70936     -2541.4644    
     41600  -3305596.6     -3305622.8      26.153385      507.09622     -3320.6188    
     41700  -3305597.1     -3305624.6      27.477843      532.77655     -3968.8982    
     41800  -3305597.6     -3305623        25.444674      493.3548      -3543.4548    
     41900  -3305597.9     -3305624        26.091155      505.88961     -4645.513     
     42000  -3305598.2     -3305624.7      26.491195      513.64612     -1040.176     
     42100  -3305598.4     -3305626.5      28.148044      545.77129     -4298.0394    
     42200  -3305598.5     -3305625.2      26.748325      518.63171     -4802.7506    
     42300  -3305598.5     -3305625.9      27.469283      532.61058     -5191.3679    
     42400  -3305598.3     -3305624.7      26.342447      510.76201     -5602.3249    
     42500  -3305598.1     -3305625.9      27.823333      539.47536     -3474.1053    
     42600  -3305597.7     -3305625.6      27.851484      540.0212      -3598.8173    
     42700  -3305597.3     -3305626.1      28.784076      558.10352     -3730.5354    
     42800  -3305596.8     -3305624.4      27.56287       534.42516     -3280.5834    
     42900  -3305596.3     -3305624.5      28.266227      548.06278     -5056.8705    
     43000  -3305595.8     -3305623.7      27.917292      541.29717     -2063.2551    
     43100  -3305595.2     -3305626.3      31.136902      603.72321     -3993.3604    
     43200  -3305594.7     -3305622        27.332395      529.95642     -1105.6965    
     43300  -3305594.1     -3305624.1      30.038154      582.41923     -3777.6999    
     43400  -3305593.6     -3305622.8      29.231333      566.77552     -2713.1231    
     43500  -3305593.2     -3305623.4      30.21634       585.87414     -2412.7736    
     43600  -3305592.7     -3305621.6      28.856449      559.50678     -5769.9539    
     43700  -3305592.4     -3305622.9      30.565189      592.63809     -392.48245    
     43800  -3305592.1     -3305622.3      30.215719      585.86209     -4365.454     
     43900  -3305591.8     -3305621.3      29.506448      572.10982     -3054.0052    
     44000  -3305591.7     -3305623.7      32.076757      621.94635     -1973.9568    
     44100  -3305591.6     -3305622.1      30.557801      592.49483     -3010.4482    
     44200  -3305591.6     -3305622.8      31.155728      604.08822     -2573.6954    
     44300  -3305591.7     -3305622.5      30.808401      597.35378     -969.60457    
     44400  -3305592       -3305621.4      29.408534      570.21133     -2121.8252    
     44500  -3305592.3     -3305622.1      29.80569       577.91191     -1368.2797    
     44600  -3305592.6     -3305622        29.328059      568.65098     -1163.2956    
     44700  -3305593       -3305622.8      29.762081      577.06636     -3736.3421    
     44800  -3305593.4     -3305622.5      29.09316       564.09645     -5183.2243    
     44900  -3305593.8     -3305622.2      28.403771      550.72966     -5721.3036    
     45000  -3305594.2     -3305624.7      30.561836      592.57307     -4889.8922    
     45100  -3305594.5     -3305623.5      28.944746      561.21879     -176.65729    
     45200  -3305594.9     -3305625.3      30.438641      590.18439     -1957.9936    
     45300  -3305595.2     -3305624.1      28.970736      561.72273     -5365.4403    
     45400  -3305595.4     -3305624.4      29.002928      562.3469      -3525.3095    
     45500  -3305595.5     -3305624.1      28.58936       554.32811     -705.13378    
     45600  -3305595.6     -3305624.3      28.702076      556.51359     -4665.6347    
     45700  -3305595.6     -3305625.2      29.533028      572.62517     -1611.8284    
     45800  -3305595.6     -3305623.5      27.900313      540.96796     -2908.129     
     45900  -3305595.5     -3305624.3      28.800406      558.42014     -472.37088    
     46000  -3305595.4     -3305623.9      28.497882      552.55441     -4151.3199    
     46100  -3305595.1     -3305623.8      28.665418      555.80281     -363.18524    
     46200  -3305594.8     -3305623.9      29.108128      564.38666     -1057.1822    
     46300  -3305594.4     -3305624        29.539978      572.75993     -2864.0418    
     46400  -3305594       -3305623        28.946387      561.25062     -1658.602     
     46500  -3305593.6     -3305622        28.44243       551.47924     -825.66155    
     46600  -3305593.2     -3305622.2      29.006816      562.42228     -3833.2123    
     46700  -3305592.8     -3305621.5      28.774061      557.90933     -4041.9693    
     46800  -3305592.3     -3305624        31.678228      614.21915     -4104.661     
     46900  -3305591.8     -3305621.3      29.457708      571.16479     -2431.8742    
     47000  -3305591.4     -3305621.9      30.590296      593.12488     -945.36196    
     47100  -3305590.9     -3305621.2      30.322322      587.92906     -4018.7294    
     47200  -3305590.5     -3305620.1      29.584597      573.62508     -2156.7085    
     47300  -3305590.2     -3305622.5      32.32268       626.71462      236.39575    
     47400  -3305589.9     -3305621.1      31.202446      604.99405     -2510.7411    
     47500  -3305589.8     -3305620.2      30.423427      589.8894      -2591.7571    
     47600  -3305589.7     -3305621.5      31.787987      616.34729     -2512.9022    
     47700  -3305589.7     -3305621        31.209473      605.1303      -2886.8638    
     47800  -3305589.9     -3305620.1      30.242172      586.375       -2351.4738    
     47900  -3305590       -3305619.2      29.199292      566.15427     -4083.9237    
     48000  -3305590.2     -3305621.8      31.614802      612.98935     -2332.9246    
     48100  -3305590.5     -3305621.8      31.375235      608.34432     -3635.9981    
     48200  -3305590.8     -3305620.5      29.673532      575.34945     -2317.7804    
     48300  -3305591.1     -3305623.3      32.226682      624.85329     -6532.3395    
     48400  -3305591.4     -3305622.4      30.96074       600.30754     -3223.2279    
     48500  -3305591.8     -3305621.6      29.809452      577.98485     -2707.3125    
     48600  -3305592.1     -3305622.2      30.081115      583.25222     -4252.5775    
     48700  -3305592.4     -3305621        28.691023      556.29929     -965.7145     
     48800  -3305592.6     -3305622.2      29.629434      574.49443     -5556.4997    
     48900  -3305592.7     -3305622.1      29.41937       570.42142     -3674.9849    
     49000  -3305592.7     -3305620.6      27.884292      540.65732     -3039.7233    
     49100  -3305592.6     -3305622.4      29.719325      576.23736     -3282.5947    
     49200  -3305592.4     -3305621.2      28.744175      557.32986     -4374.2465    
     49300  -3305592.1     -3305622.3      30.237891      586.292       -2854.6677    
     49400  -3305591.6     -3305621.2      29.541489      572.78924     -5801.3969    
     49500  -3305591.1     -3305622.1      31.016274      601.38431     -3168.4328    
     49600  -3305590.5     -3305620.8      30.287142      587.24694     -1342.9577    
     49700  -3305589.9     -3305621.9      31.939287      619.28089     -4525.3204    
     49800  -3305589.3     -3305618.1      28.769463      557.82018     -1983.3904    
     49900  -3305588.8     -3305620.4      31.655794      613.78416     -977.6429     
     50000  -3305588.3     -3305620.8      32.535912      630.84905      991.40154    
Loop time of 4300.27 on 72 procs for 50000 steps with 400 atoms

Performance: 2.009 ns/day, 11.945 hours/ns, 11.627 timesteps/s, 4.651 katom-step/s
91.5% CPU use with 72 MPI tasks x 1 OpenMP threads

MPI task timing breakdown:
Section |  min time  |  avg time  |  max time  |%varavg| %total
---------------------------------------------------------------
Pair    | 714.61     | 3151.4     | 4055.3     | 807.9 | 73.28
Bond    | 0.016646   | 0.033305   | 0.045811   |   3.5 |  0.00
Neigh   | 0.036006   | 0.078519   | 0.094132   |   3.2 |  0.00
Comm    | 243.42     | 1147.2     | 3576.3     |1337.3 | 26.68
Output  | 0.065057   | 0.065651   | 0.073603   |   0.4 |  0.00
Modify  | 0.93817    | 1.1086     | 8.7228     |  85.9 |  0.03
Other   |            | 0.4345     |            |       |  0.01

Nlocal:        5.55556 ave           8 max           1 min
Histogram: 1 1 4 0 9 17 0 21 14 5
Nghost:        368.542 ave         382 max         355 min
Histogram: 2 4 9 12 10 9 7 15 2 2
Neighs:              0 ave           0 max           0 min
Histogram: 72 0 0 0 0 0 0 0 0 0
FullNghs:      452.944 ave         678 max          71 min
Histogram: 1 1 4 1 8 17 9 14 13 4

Total # of neighbors = 32612
Ave neighs/atom = 81.53
Ave special neighs/atom = 0
Neighbor list builds = 2230
Dangerous builds = 0
unfix therm_equ

fix therm_equ2 all nvt temp 600 300 1.0
run 100000
Per MPI rank memory allocation (min/avg/max) = 8.036 | 8.036 | 8.036 Mbytes
   Step         TotEng         PotEng         KinEng          Temp          Press     
     50000  -3305588.3     -3305620.8      32.535912      630.84905      991.40154    
     50100  -3305588.4     -3305620.3      31.971397      619.90348     -3645.5052    
     50200  -3305588.5     -3305621.3      32.837694      636.70039     -2292.1035    
     50300  -3305588.6     -3305619.5      30.867251      598.49485     -4737.9797    
     50400  -3305588.8     -3305621.7      32.882265      637.56459     -1173.6179    
     50500  -3305589.1     -3305621.2      32.102239      622.44042     -448.13948    
     50600  -3305589.5     -3305621        31.579508      612.30502     -5790.2946    
     50700  -3305590       -3305621.1      31.175608      604.47368     -2462.3695    
     50800  -3305590.6     -3305622.6      31.957957      619.64289     -2130.4736    
     50900  -3305591.4     -3305622.3      30.8818        598.77695     -3796.7894    
     51000  -3305592.1     -3305622.2      30.105857      583.73195     -3037.3872    
     51100  -3305592.7     -3305621.7      29.058344      563.42139     -3474.0507    
     51200  -3305593       -3305623.4      30.327463      588.02873     -3539.9106    
     51300  -3305593.2     -3305623        29.770483      577.22927     -3545.3129    
     51400  -3305593.2     -3305621.5      28.276701      548.26585     -6400.3858    
     51500  -3305593.2     -3305621.1      27.916951      541.29056     -2980.4263    
     51600  -3305593       -3305623.3      30.316545      587.81705     -2509.6555    
     51700  -3305592.7     -3305622        29.328029      568.65039     -2723.4939    
     51800  -3305592.4     -3305623.3      30.817736      597.53478     -5757.3878    
     51900  -3305592.2     -3305623.3      31.157774      604.1279      -3750.1115    
     52000  -3305591.9     -3305621.1      29.185992      565.8964      -3296.2023    
     52100  -3305591.5     -3305620.1      28.597812      554.49199     -780.64583    
     52200  -3305591.2     -3305623.3      32.11111       622.61242     -3772.914     
     52300  -3305590.9     -3305621.2      30.272937      586.97151     -3301.813     
     52400  -3305590.6     -3305621.8      31.2631        606.17009     -1760.0269    
     52500  -3305590.3     -3305622.8      32.471591      629.60191     -3990.8069    
     52600  -3305590.2     -3305621.1      30.962751      600.34653     -387.98543    
     52700  -3305590       -3305619.6      29.585463      573.64185     -4699.1679    
     52800  -3305589.9     -3305620.2      30.334178      588.15894     -4223.4976    
     52900  -3305589.8     -3305619.5      29.682569      575.52467      685.26913    
     53000  -3305589.7     -3305620.4      30.645411      594.19352     -5265.1098    
     53100  -3305589.7     -3305620.6      30.945012      600.00259     -4639.9218    
     53200  -3305589.7     -3305620.3      30.612003      593.54577     -256.34867    
     53300  -3305589.6     -3305619.1      29.519333      572.35964     -219.58423    
     53400  -3305589.6     -3305619.3      29.727984      576.40524     -5837.8861    
     53500  -3305589.6     -3305620.3      30.738735      596.00301     -2217.8166    
     53600  -3305589.6     -3305621        31.419812      609.20862     -2477.9791    
     53700  -3305589.6     -3305619.8      30.174746      585.06765     -6036.0389    
     53800  -3305589.8     -3305620.3      30.53266       592.00736     -1162.8253    
     53900  -3305590.1     -3305620.5      30.426943      589.95758     -1873.6995    
     54000  -3305590.5     -3305620.2      29.687476      575.61983     -4324.4007    
     54100  -3305591.1     -3305620.8      29.724062      576.3292      -3493.9457    
     54200  -3305591.7     -3305622.1      30.434868      590.11123     -4299.1834    
     54300  -3305592.2     -3305620.6      28.37313       550.13555     -237.88572    
     54400  -3305592.7     -3305620.6      27.956119      542.05        -5679.4955    
     54500  -3305593       -3305621.8      28.780818      558.04035     -1874.779     
     54600  -3305593.2     -3305622.1      28.846466      559.31322     -4238.9324    
     54700  -3305593.3     -3305623.6      30.310377      587.69745     -3839.2183    
     54800  -3305593.3     -3305623        29.691532      575.69847     -6414.9145    
     54900  -3305593.2     -3305623.4      30.221915      585.98224     -2116.9894    
     55000  -3305593       -3305622        28.971155      561.73084     -3187.5742    
     55100  -3305592.7     -3305624.5      31.822705      617.02044     -5659.2464    
     55200  -3305592.3     -3305621.9      29.603293      573.98758     -2944.558     
     55300  -3305591.8     -3305621.7      29.993449      581.55244     -3854.5803    
     55400  -3305591.2     -3305620.8      29.626594      574.43937     -2335.3765    
     55500  -3305590.7     -3305621.9      31.250704      605.92974     -4788.6817    
     55600  -3305590.2     -3305621.4      31.197539      604.89892     -4539.1986    
     55700  -3305589.9     -3305619        29.0743        563.73075     -1810.2297    
     55800  -3305589.8     -3305621        31.232882      605.58419     -3507.1102    
     55900  -3305589.8     -3305620.4      30.647815      594.24014     -754.64313    
     56000  -3305589.9     -3305620.4      30.476707      590.92248      440.5619     
     56100  -3305590.2     -3305620.7      30.561582      592.56813     -6343.4519    
     56200  -3305590.5     -3305621.8      31.343101      607.72125     -2409.6647    
     56300  -3305590.8     -3305621        30.120265      584.0113      -3094.8042    
     56400  -3305591.2     -3305622.5      31.25688       606.04949     -1789.1365    
     56500  -3305591.6     -3305623.1      31.514246      611.03965     -1164.521     
     56600  -3305592       -3305625.1      33.135119      642.46726     -2885.7017    
     56700  -3305592.2     -3305623.3      31.027101      601.59424     -6729.3786    
     56800  -3305592.4     -3305621.1      28.630383      555.12351     -592.24171    
     56900  -3305592.6     -3305622.8      30.225819      586.05792     -3894.536     
     57000  -3305592.7     -3305621.9      29.239418      566.93228     -4881.0087    
     57100  -3305592.7     -3305622.9      30.164507      584.86914     -3349.2196    
     57200  -3305592.8     -3305624.1      31.261357      606.1363      -4010.0609    
     57300  -3305592.9     -3305622.1      29.223554      566.62469     -2610.418     
     57400  -3305593       -3305624        31.059357      602.21966     -5428.2638    
     57500  -3305593.1     -3305622.2      29.159005      565.37313     -4617.7397    
     57600  -3305593.1     -3305622.6      29.522995      572.43064     -4363.1012    
     57700  -3305593.2     -3305624.5      31.359126      608.03198     -3642.1527    
     57800  -3305593.2     -3305623.7      30.491238      591.20422     -2289.5787    
     57900  -3305593.3     -3305623.5      30.177578      585.12256     -6785.0315    
     58000  -3305593.4     -3305624.2      30.720421      595.64792     -5904.8992    
     58100  -3305593.6     -3305622.8      29.198242      566.13391     -2895.8561    
     58200  -3305593.8     -3305623.2      29.401408      570.07316     -4141.6833    
     58300  -3305594       -3305623.6      29.543988      572.8377      -5699.6959    
     58400  -3305594.3     -3305623.5      29.152437      565.24579     -900.79242    
     58500  -3305594.7     -3305624.2      29.498025      571.9465      -5734.5544    
     58600  -3305595.2     -3305622.7      27.493969      533.08922     -1573.8172    
     58700  -3305595.6     -3305623.9      28.23617       547.48        -2366.543     
     58800  -3305596       -3305626        30.006461      581.80472     -6373.511     
     58900  -3305596.4     -3305623.7      27.241057      528.18544     -739.35564    
     59000  -3305596.7     -3305625.8      29.099315      564.21578     -3783.5759    
     59100  -3305596.9     -3305623        26.050964      505.11034     -3662.7511    
     59200  -3305597       -3305623.2      26.230082      508.58333     -2982.4183    
     59300  -3305596.9     -3305624.8      27.893988      540.84531     -4431.0109    
     59400  -3305596.6     -3305624.2      27.645385      536.02509     -3540.7071    
     59500  -3305596.1     -3305623.7      27.624163      535.6136      -4077.4925    
     59600  -3305595.4     -3305624.4      29.023484      562.74548     -3432.3185    
     59700  -3305594.6     -3305623.4      28.757512      557.58845     -3719.6448    
     59800  -3305593.9     -3305624.1      30.156752      584.71876     -3505.1419    
     59900  -3305593.4     -3305622        28.573746      554.02537     -5455.0101    
     60000  -3305593.1     -3305624.7      31.629883      613.28176     -1090.4823    
     60100  -3305592.9     -3305622.5      29.650749      574.90772     -8004.3497    
     60200  -3305592.7     -3305623.2      30.432368      590.06277     -3733.723     
     60300  -3305592.7     -3305623.6      30.97451       600.57453      28.546183    
     60400  -3305592.7     -3305622.9      30.209554      585.74256     -1652.0018    
     60500  -3305592.7     -3305624.4      31.679243      614.23882     -2465.1199    
     60600  -3305592.8     -3305621.3      28.475966      552.12948     -1436.9885    
     60700  -3305592.9     -3305622.1      29.228621      566.72294     -4298.0843    
     60800  -3305593       -3305622        29.023476      562.74532     -3286.0185    
     60900  -3305593.2     -3305622.6      29.429593      570.61964     -3314.1153    
     61000  -3305593.5     -3305622.8      29.341431      568.91024      960.745      
     61100  -3305593.8     -3305623        29.164951      565.48841     -3209.4274    
     61200  -3305594.3     -3305623.7      29.38901       569.83278     -967.10528    
     61300  -3305594.9     -3305623.9      29.010087      562.48572     -799.21942    
     61400  -3305595.5     -3305624.7      29.256932      567.27186     -4819.5107    
     61500  -3305596       -3305623.1      27.037014      524.22918     -1537.4601    
     61600  -3305596.5     -3305625        28.505866      552.70922     -1996.9441    
     61700  -3305596.7     -3305625.2      28.448805      551.60285     -2671.2477    
     61800  -3305596.9     -3305624.7      27.762483      538.29553     -3397.5415    
     61900  -3305597       -3305624.7      27.707489      537.22924     -1365.2967    
     62000  -3305597       -3305624.9      27.973366      542.3844      -4974.5593    
     62100  -3305596.9     -3305626.4      29.519958      572.37177     -612.2457     
     62200  -3305596.8     -3305624.3      27.423285      531.71871     -4359.786     
     62300  -3305596.7     -3305624.9      28.117952      545.18782     -6802.272     
     62400  -3305596.6     -3305626        29.419278      570.41966     -4822.735     
     62500  -3305596.4     -3305625.2      28.757319      557.58471     -6989.1122    
     62600  -3305596.3     -3305624.8      28.513629      552.85974     -3100.9286    
     62700  -3305596.1     -3305624.3      28.159969      546.00251     -1484.0566    
     62800  -3305596       -3305624.1      28.140957      545.63387     -4918.7461    
     62900  -3305595.8     -3305626        30.228515      586.1102      -3330.8396    
     63000  -3305595.7     -3305625        29.32107       568.51545     -4744.5163    
     63100  -3305595.5     -3305626.3      30.776409      596.73348     -5733.9123    
     63200  -3305595.4     -3305624.5      29.101713      564.26227     -3167.7789    
     63300  -3305595.3     -3305624.1      28.717469      556.81205     -3572.3788    
     63400  -3305595.2     -3305625.5      30.241474      586.36147     -4409.95      
     63500  -3305595.1     -3305623.9      28.745105      557.3479      -4980.4199    
     63600  -3305595       -3305626.4      31.446138      609.71907     -4861.6967    
     63700  -3305594.8     -3305622.5      27.648421      536.08394     -5978.4781    
     63800  -3305594.6     -3305622.6      28.076992      544.39365     -4102.4125    
     63900  -3305594.1     -3305623.2      29.093189      564.097       -4059.0759    
     64000  -3305593.5     -3305623.6      30.045241      582.55663     -3864.6949    
     64100  -3305592.8     -3305623        30.173705      585.04746     -1924.8053    
     64200  -3305592.2     -3305623.7      31.523152      611.21232     -3133.1797    
     64300  -3305591.7     -3305622.7      31.012105      601.30348     -4365.8387    
     64400  -3305591.5     -3305623.1      31.648159      613.63613     -2790.8103    
     64500  -3305591.4     -3305622.1      30.655553      594.39017     -3205.5354    
     64600  -3305591.7     -3305623.8      32.162713      623.61297     -3768.6496    
     64700  -3305592.1     -3305622.6      30.525216      591.86302     -3054.5631    
     64800  -3305592.7     -3305623.3      30.569302      592.71783     -2928.6629    
     64900  -3305593.4     -3305622.7      29.342442      568.92985     -861.49819    
     65000  -3305594.1     -3305622        27.951698      541.96428     -4068.3224    
     65100  -3305594.6     -3305625.1      30.454101      590.48416     -753.66994    
     65200  -3305595.1     -3305624.5      29.418464      570.40386     -2651.4814    
     65300  -3305595.4     -3305623.8      28.408408      550.81957     -3259.9878    
     65400  -3305595.8     -3305624.3      28.558439      553.72856     -1949.7381    
     65500  -3305596.1     -3305624.2      28.098986      544.82009     -2580.9644    
     65600  -3305596.3     -3305625        28.750296      557.44854     -2580.7782    
     65700  -3305596.5     -3305625.1      28.644495      555.39713     -3036.82      
     65800  -3305596.7     -3305625.2      28.521372      553.00986     -3149.6867    
     65900  -3305597       -3305624.5      27.443142      532.10373      623.10384    
     66000  -3305597.3     -3305625.3      27.993243      542.7698      -4657.6618    
     66100  -3305597.6     -3305625.9      28.309048      548.89304     -3022.5396    
     66200  -3305597.9     -3305625.1      27.197732      527.34538     -2256.6003    
     66300  -3305598.2     -3305626.3      28.122031      545.26692     -4943.4359    
     66400  -3305598.3     -3305626.4      28.034388      543.56758     -3187.1258    
     66500  -3305598.4     -3305625.9      27.433828      531.92312     -3275.5099    
     66600  -3305598.5     -3305627.2      28.661509      555.72703     -6229.0739    
     66700  -3305598.5     -3305626.6      28.101498      544.8688      -5351.4675    
     66800  -3305598.6     -3305626.2      27.6594        536.29681     -3323.3365    
     66900  -3305598.5     -3305625.5      26.992211      523.36048     -5363.7971    
     67000  -3305598.5     -3305624.5      26.037372      504.8468      -1676.3892    
     67100  -3305598.3     -3305626.5      28.232926      547.41709     -1375.3334    
     67200  -3305598.1     -3305626.7      28.626683      555.05177     -4569.9421    
     67300  -3305597.7     -3305624.6      26.912991      521.82446     -5928.8171    
     67400  -3305597.3     -3305626.1      28.82032       558.80626     -4202.9759    
     67500  -3305596.7     -3305624.3      27.519731      533.58873     -3028.5864    
     67600  -3305596.2     -3305624.7      28.493256      552.46471     -1384.6356    
     67700  -3305595.7     -3305624.9      29.175898      565.70068     -1233.8385    
     67800  -3305595.3     -3305625.2      29.959567      580.89549     -3614.8584    
     67900  -3305594.9     -3305624.3      29.355501      569.18305     -6456.1405    
     68000  -3305594.8     -3305625.5      30.742093      596.06813     -3095.2044    
     68100  -3305594.7     -3305623.6      28.897054      560.29408     -5316.2283    
     68200  -3305594.7     -3305624.5      29.829473      578.37305     -2676.9797    
     68300  -3305594.9     -3305625        30.022568      582.11702     -1407.3231    
     68400  -3305595.3     -3305625.5      30.198904      585.53607     -4481.0041    
     68500  -3305595.8     -3305625.2      29.447648      570.96973     -2801.965     
     68600  -3305596.3     -3305623.4      27.055521      524.58801     -1294.9003    
     68700  -3305597       -3305625.4      28.403909      550.73234     -3643.8037    
     68800  -3305597.5     -3305625.5      27.938013      541.69893     -2277.466     
     68900  -3305597.9     -3305626.1      28.180266      546.39606     -4647.9099    
     69000  -3305598.3     -3305624.6      26.353389      510.97416     -5022.115     
     69100  -3305598.5     -3305627.6      29.134932      564.90637     -2363.1332    
     69200  -3305598.6     -3305627.9      29.333502      568.7565      -4361.1832    
     69300  -3305598.7     -3305626.2      27.513447      533.46688     -5360.3669    
     69400  -3305598.8     -3305626.6      27.840894      539.81585     -2767.3215    
     69500  -3305598.8     -3305625.9      27.086081      525.18055     -3570.8794    
     69600  -3305598.8     -3305626.8      28.020672      543.30163     -3896.7225    
     69700  -3305598.8     -3305627.4      28.567087      553.89624     -1351.8115    
     69800  -3305598.8     -3305627.1      28.298283      548.68432     -2068.2904    
     69900  -3305598.8     -3305626.5      27.766603      538.3754      -2370.7418    
     70000  -3305598.8     -3305626.9      28.166074      546.12088     -2246.2758    
     70100  -3305598.8     -3305625.5      26.714436      517.97461     -1525.3979    
     70200  -3305598.7     -3305626.3      27.521041      533.61413     -2709.4609    
     70300  -3305598.8     -3305626.5      27.720615      537.48374     -7679.1804    
     70400  -3305598.7     -3305626.6      27.890469      540.7771      -2418.0851    
     70500  -3305598.6     -3305627        28.375429      550.18014     -1884.1993    
     70600  -3305598.5     -3305627.4      28.886562      560.09066     -3997.4333    
     70700  -3305598.4     -3305625        26.640533      516.54168     -3578.2679    
     70800  -3305598.2     -3305625.9      27.730248      537.67051     -2150.6618    
     70900  -3305598       -3305627.1      29.079372      563.82911     -3245.7211    
     71000  -3305597.8     -3305625.3      27.529085      533.77011     -4532.4553    
     71100  -3305597.5     -3305626.3      28.761383      557.66352     -4076.0565    
     71200  -3305597.3     -3305625.3      28.052508      543.91892     -2592.5054    
     71300  -3305597.1     -3305626.5      29.388816      569.82901     -3276.4886    
     71400  -3305597       -3305626.7      29.753682      576.90351     -2439.4321    
     71500  -3305596.9     -3305625.7      28.83388       559.06918     -2228.3066    
     71600  -3305596.9     -3305623.4      26.537124      514.53665     -1809.035     
     71700  -3305597       -3305624.7      27.706032      537.20099     -6765.0046    
     71800  -3305597.1     -3305625.3      28.228721      547.33557     -6302.1112    
     71900  -3305597.3     -3305625.2      27.870087      540.3819       701.22029    
     72000  -3305597.7     -3305625.5      27.854163      540.07314     -3975.0076    
     72100  -3305598       -3305625        26.916868      521.89964     -4526.8387    
     72200  -3305598.5     -3305627.2      28.711146      556.68946     -2518.1149    
     72300  -3305599       -3305625.2      26.168303      507.38546     -4427.422     
     72400  -3305599.5     -3305626.3      26.811683      519.86017     -3922.7898    
     72500  -3305599.9     -3305626.4      26.540188      514.59607     -3967.6241    
     72600  -3305600.2     -3305629.1      28.899144      560.33461     -4705.5439    
     72700  -3305600.4     -3305627.9      27.451764      532.27089     -3086.2704    
     72800  -3305600.6     -3305627.2      26.569538      515.16513     -2946.4561    
     72900  -3305600.8     -3305627.2      26.462064      513.08129     -1816.6619    
     73000  -3305600.8     -3305628        27.119531      525.82913     -4491.0027    
     73100  -3305600.9     -3305627.9      27.022828      523.95412     -2723.0074    
     73200  -3305600.9     -3305627.4      26.513049      514.06986     -2951.3212    
     73300  -3305600.8     -3305627.4      26.568131      515.13786     -4375.8203    
     73400  -3305600.7     -3305626.8      26.107312      506.2029      -2761.2464    
     73500  -3305600.5     -3305626.7      26.153389      507.0963      -2882.4976    
     73600  -3305600.1     -3305626        25.880236      501.80004     -1382.9954    
     73700  -3305599.5     -3305626.7      27.230882      527.98816     -3276.964     
     73800  -3305598.6     -3305625.1      26.508581      513.98322      1556.9102    
     73900  -3305597.7     -3305624.5      26.788646      519.41349     -969.60995    
     74000  -3305597       -3305625.7      28.734849      557.14904     -3064.9577    
     74100  -3305596.6     -3305625.5      28.88551       560.07026     -543.28067    
     74200  -3305596.4     -3305625.6      29.20071       566.18176     -2591.4184    
     74300  -3305596.4     -3305626        29.644976      574.79577     -3604.6702    
     74400  -3305596.5     -3305625.6      29.135821      564.92361     -436.66872    
     74500  -3305596.7     -3305624.7      28.026932      543.423       -3952.644     
     74600  -3305597       -3305626.1      29.16805       565.5485      -3577.246     
     74700  -3305597.4     -3305623.8      26.448321      512.81483     -6607.9323    
     74800  -3305597.9     -3305626.3      28.432319      551.28318     -1990.2449    
     74900  -3305598.3     -3305626.2      27.83592       539.71942     -2454.7451    
     75000  -3305598.8     -3305628        29.198767      566.14408     -3424.3479    
     75100  -3305599.3     -3305626.4      27.148886      526.3983      -4737.5646    
     75200  -3305599.7     -3305627.5      27.843214      539.86084     -2950.7287    
     75300  -3305600       -3305628.1      28.098091      544.80274     -3321.5214    
     75400  -3305600.3     -3305626.9      26.531535      514.42829     -2616.8953    
     75500  -3305600.5     -3305629.1      28.551289      553.58994     -4345.2521    
     75600  -3305600.7     -3305627.7      27.013632      523.77583     -5989.0865    
     75700  -3305600.8     -3305627.5      26.649691      516.71925     -4751.0991    
     75800  -3305601       -3305627.8      26.806608      519.76176     -5005.0526    
     75900  -3305601       -3305627.4      26.357128      511.04665     -3496.9875    
     76000  -3305601       -3305627.9      26.897682      521.52763     -4579.2382    
     76100  -3305601.1     -3305627.8      26.713847      517.96319     -4637.994     
     76200  -3305601       -3305627.5      26.451391      512.87435     -6102.7849    
     76300  -3305601       -3305628.6      27.642022      535.95988     -4715.8403    
     76400  -3305600.9     -3305628.9      28.011961      543.13274     -4024.4378    
     76500  -3305600.8     -3305629.6      28.854861      559.47599     -3368.3198    
     76600  -3305600.6     -3305626.3      25.720538      498.70361     -1287.3599    
     76700  -3305600.3     -3305626.3      25.942703      503.01125     -2934.853     
     76800  -3305600       -3305627.5      27.485109      532.91744     -1874.9747    
     76900  -3305599.6     -3305627.3      27.691799      536.92501     -2121.3083    
     77000  -3305599.2     -3305626.7      27.467715      532.58019     -3783.9599    
     77100  -3305598.7     -3305627        28.292472      548.57165     -4132.0586    
     77200  -3305598.3     -3305627        28.683075      556.14518     -4660.2657    
     77300  -3305598       -3305625.7      27.747221      537.9996      -3702.9564    
     77400  -3305597.7     -3305626.9      29.172029      565.62567     -3720.2982    
     77500  -3305597.7     -3305625.9      28.212469      547.02045     -2615.0405    
     77600  -3305597.7     -3305626.6      28.918493      560.70977     -3181.3233    
     77700  -3305597.9     -3305626.3      28.336597      549.42721     -2853.0782    
     77800  -3305598.3     -3305625.7      27.419195      531.63941     -3117.7669    
     77900  -3305598.9     -3305627.6      28.673287      555.9554      -3861.378     
     78000  -3305599.6     -3305626.3      26.755306      518.76706     -2994.4335    
     78100  -3305600.2     -3305626.2      25.908486      502.34779     -1745.9594    
     78200  -3305600.8     -3305628        27.281866      528.9767      -3996.4257    
     78300  -3305601.1     -3305627.3      26.175765      507.53015     -4928.2818    
     78400  -3305601.4     -3305627        25.617718      496.71        -1909.1399    
     78500  -3305601.6     -3305629.1      27.504826      533.29974     -5590.6097    
     78600  -3305601.7     -3305630.1      28.407938      550.81046     -4683.4634    
     78700  -3305601.8     -3305629.4      27.592959      535.00857     -3835.5638    
     78800  -3305601.9     -3305628.2      26.300832      509.95512     -4039.2092    
     78900  -3305601.9     -3305627.8      25.900766      502.19811     -1230.9808    
     79000  -3305601.8     -3305628.3      26.514591      514.09976     -2788.3318    
     79100  -3305601.8     -3305628.8      27.052124      524.52215     -1604.3162    
     79200  -3305601.7     -3305626.7      24.969644      484.1443      -3932.6726    
     79300  -3305601.6     -3305627        25.331665      491.16363     -3152.9181    
     79400  -3305601.5     -3305626.9      25.426729      493.00685     -2722.9204    
     79500  -3305601.4     -3305627.3      25.96298       503.40439     -4235.3448    
     79600  -3305601.2     -3305627.6      26.3649        511.19736     -5545.3217    
     79700  -3305601.1     -3305628.4      27.264436      528.63874     -995.45436    
     79800  -3305601       -3305627.2      26.203533      508.06856     -4732.922     
     79900  -3305600.8     -3305628.3      27.408328      531.4287      -1262.5006    
     80000  -3305600.7     -3305628.2      27.507543      533.35241     -1345.705     
     80100  -3305600.6     -3305626.2      25.533913      495.08507     -4075.9873    
     80200  -3305600.6     -3305627        26.38787       511.64273     -632.75668    
     80300  -3305600.5     -3305625.9      25.328442      491.10115     -2258.0381    
     80400  -3305600.5     -3305627.7      27.133732      526.10447     -5828.3989    
     80500  -3305600.6     -3305627.8      27.241559      528.19516     -3976.6109    
     80600  -3305600.7     -3305626        25.232863      489.24794     -3289.8238    
     80700  -3305600.9     -3305626.8      25.93749       502.91017     -1278.5729    
     80800  -3305601.1     -3305627.5      26.403821      511.952       -2463.3534    
     80900  -3305601.4     -3305628.4      26.978109      523.08706     -4713.6427    
     81000  -3305601.7     -3305627.5      25.79502       500.14776     -1226.663     
     81100  -3305602.1     -3305628.3      26.205556      508.10778     -4195.3865    
     81200  -3305602.5     -3305627.9      25.35738       491.66223     -3864.403     
     81300  -3305602.9     -3305629.5      26.586817      515.50017     -3264.4878    
     81400  -3305603.2     -3305629        25.771329      499.68842     -3577.9035    
     81500  -3305603.6     -3305629.2      25.601911      496.40352      561.05241    
     81600  -3305603.8     -3305627.4      23.567451      456.95672     -2187.6639    
     81700  -3305604       -3305629.6      25.531593      495.04011     -2807.5144    
     81800  -3305604.2     -3305628.7      24.511523      475.26164      1411.0161    
     81900  -3305604.2     -3305630.4      26.125085      506.54749     -3960.9445    
     82000  -3305604.3     -3305629.8      25.523109      494.8756      -2116.3435    
     82100  -3305604.2     -3305630.2      25.94363       503.02922     -1747.8823    
     82200  -3305604.1     -3305628.1      23.97188       464.79833     -2592.5044    
     82300  -3305603.9     -3305630.2      26.346298      510.83668     -2612.073     
     82400  -3305603.5     -3305630.6      27.052603      524.53143     -2664.5267    
     82500  -3305603       -3305629.8      26.815337      519.93102     -3222.5372    
     82600  -3305602.2     -3305628.8      26.533287      514.46225     -3755.1442    
     82700  -3305601.5     -3305627.5      26.01633       504.43881     -2681.7726    
     82800  -3305600.9     -3305628.9      27.955348      542.03505     -1982.1992    
     82900  -3305600.5     -3305626.1      25.594621      496.26216     -2692.1934    
     83000  -3305600.3     -3305627.4      27.110131      525.64686     -2866.8573    
     83100  -3305600.2     -3305627.7      27.410655      531.47383     -4330.7698    
     83200  -3305600.3     -3305628.7      28.400283      550.66203     -2367.376     
     83300  -3305600.4     -3305628.2      27.831268      539.62922     -2465.9604    
     83400  -3305600.6     -3305628        27.385054      530.97744      398.84394    
     83500  -3305600.9     -3305626.7      25.824639      500.72206     -2296.3907    
     83600  -3305601.2     -3305627.3      26.178255      507.57843     -2486.8072    
     83700  -3305601.5     -3305626.8      25.292216      490.39875     -3550.8387    
     83800  -3305601.8     -3305627.8      25.990608      503.94009     -5151.293     
     83900  -3305602.1     -3305628.1      26.03725       504.84444     -3722.86      
     84000  -3305602.3     -3305628.9      26.580854      515.38454     -5620.1957    
     84100  -3305602.6     -3305628.4      25.817109      500.57606     -5162.6123    
     84200  -3305602.9     -3305628.8      25.955631      503.2619      -212.29362    
     84300  -3305603.1     -3305628.3      25.231711      489.22559     -2434.4897    
     84400  -3305603.2     -3305628.8      25.597691      496.3217      -2724.5009    
     84500  -3305603.3     -3305628.4      25.084153      486.36454     -2419.4048    
     84600  -3305603.4     -3305628.4      25.026073      485.23841     -1505.3386    
     84700  -3305603.5     -3305628.6      25.093909      486.55371     -2031.0884    
     84800  -3305603.6     -3305629.3      25.671745      497.75755      120.09758    
     84900  -3305603.7     -3305630.3      26.573553      515.243       -3264.8242    
     85000  -3305603.8     -3305630.4      26.578647      515.34176     -3393.0476    
     85100  -3305603.9     -3305630.5      26.613931      516.0259      -1924.6705    
     85200  -3305604       -3305629        25.041661      485.54065     -4677.042     
     85300  -3305604.1     -3305628.4      24.357546      472.27613     -2956.0306    
     85400  -3305604.1     -3305629        24.835658      481.5464      -4194.0304    
     85500  -3305604.1     -3305629.5      25.345054      491.42323     -4791.8218    
     85600  -3305604.1     -3305630.1      25.985469      503.84043     -3768.7979    
     85700  -3305604.1     -3305628.7      24.609011      477.15186     -3610.7702    
     85800  -3305604       -3305629.6      25.589198      496.15702     -1308.01      
     85900  -3305604       -3305628.8      24.759462      480.069       -3566.2277    
     86000  -3305604       -3305630.4      26.450944      512.86569     -3436.7083    
     86100  -3305604       -3305628.5      24.531962      475.65795     -1059.3271    
     86200  -3305604.1     -3305630        25.915131      502.47663     -3581.9807    
     86300  -3305604.2     -3305631.1      26.876421      521.11539     -4190.2302    
     86400  -3305604.4     -3305629.5      25.05857       485.8685      -2678.5553    
     86500  -3305604.8     -3305630.4      25.510342      494.62805     -4406.4873    
     86600  -3305605.5     -3305630.3      24.750355      479.89243     -4921.5471    
[...]
    228700  -3305629.5     -3305644.9      15.353302      297.69001     -464.60282    
    228800  -3305629.7     -3305645.5      15.733758      305.06678     -95.259961    
    228900  -3305629.9     -3305644.4      14.497938      281.10509      1222.7162    
    229000  -3305630       -3305645.4      15.375074      298.11215     -1352.4854    
    229100  -3305630.1     -3305644.4      14.386384      278.94213      1755.6012    
    229200  -3305630.1     -3305644.9      14.851284      287.95621     -2663.2518    
    229300  -3305630.1     -3305645.6      15.46771       299.9083       2136.1083    
    229400  -3305630.1     -3305645.7      15.600422      302.48149     -1570.5788    
    229500  -3305630       -3305645.5      15.491191      300.36358      1507.8163    
    229600  -3305629.9     -3305644.8      14.92141       289.31591      1202.7174    
    229700  -3305629.8     -3305645.2      15.39201       298.44053      1412.6836    
    229800  -3305629.6     -3305644.5      14.867835      288.27713     -804.19467    
    229900  -3305629.5     -3305644.7      15.249674      295.68073     -1046.5025    
    230000  -3305629.2     -3305644.5      15.299042      296.63795      1346.5243    
    230100  -3305629       -3305645        16.050084      311.20013     -1325.9976    
    230200  -3305628.7     -3305643.7      14.904874      288.99529     -434.87164    
    230300  -3305628.5     -3305644.8      16.325309      316.53656     -153.21016    
    230400  -3305628.3     -3305644.2      15.968742      309.62297     -143.83047    
    230500  -3305628.1     -3305643.7      15.595735      302.39062      1272.6428    
    230600  -3305627.9     -3305643.5      15.617162      302.80608     -321.40604    
    230700  -3305627.8     -3305644.2      16.396991      317.92642     -342.65862    
    230800  -3305627.7     -3305643.5      15.811273      306.56974     -686.4204     
    230900  -3305627.7     -3305643.9      16.22662       314.62304      2063.2865    
    231000  -3305627.8     -3305643.6      15.862753      307.56792     -2337.2438    
    231100  -3305627.8     -3305644.6      16.783541      325.42136     -135.65843    
    231200  -3305628.1     -3305643.7      15.580799      302.10101     -991.05729    
    231300  -3305628.6     -3305644.4      15.873781      307.78174      917.45183    
    231400  -3305629.2     -3305644.2      15.010263      291.03871     -2141.9562    
    231500  -3305629.7     -3305645        15.332984      297.29605      2341.623     
    231600  -3305630       -3305644.3      14.315095      277.55989     -1531.2211    
    231700  -3305630.2     -3305646        15.770358      305.77644      212.45849    
    231800  -3305630.3     -3305645.2      14.944758      289.76862      1972.2259    
    231900  -3305630.3     -3305646        15.619905      302.85927     -932.37915    
    232000  -3305630.4     -3305644.7      14.357675      278.38549     -1427.5573    
    232100  -3305630.3     -3305645.4      15.097873      292.73741      911.86729    
    232200  -3305630.3     -3305645.4      15.157415      293.89189     -1221.9355    
    232300  -3305630.2     -3305645.6      15.430831      299.19324     -148.07124    
    232400  -3305630.1     -3305644.7      14.670027      284.44177     -33.958636    
    232500  -3305629.9     -3305644.6      14.717644      285.36503     -1689.0224    
    232600  -3305629.7     -3305645.2      15.502522      300.58328      590.74246    
    232700  -3305629.5     -3305645.2      15.676454      303.95571      2076.3738    
    232800  -3305629.3     -3305644.5      15.265087      295.97957     -2677.8528    
    232900  -3305629.1     -3305643.8      14.727734      285.56067      3242.0247    
    233000  -3305628.9     -3305645        16.189772      313.90859     -2749.4814    
    233100  -3305628.7     -3305644.2      15.554186      301.58501      3467.2365    
    233200  -3305628.6     -3305644.8      16.180017      313.71944     -594.04131    
    233300  -3305628.5     -3305644.2      15.732828      305.04876      645.27634    
    233400  -3305628.3     -3305644.7      16.386717      317.72721      1743.6435    
    233500  -3305628.3     -3305643.5      15.236918      295.4334      -1627.4547    
    233600  -3305628.3     -3305644.5      16.246483      315.00818     -1749.7042    
    233700  -3305628.3     -3305644.8      16.509329      320.10458      3063.6156    
    233800  -3305628.4     -3305643.5      15.062542      292.05238     -3018.6306    
    233900  -3305628.5     -3305644.5      15.984577      309.93         1575.7411    
    234000  -3305628.8     -3305644.6      15.787651      306.11175     -1324.4839    
    234100  -3305629.2     -3305644.9      15.70472       304.50376     -94.462793    
    234200  -3305629.7     -3305644.7      15.056293      291.93121      1952.7431    
    234300  -3305630.2     -3305645.8      15.628672      303.02924     -3108.171     
    234400  -3305630.5     -3305645        14.533157      281.78796      1879.0078    
    234500  -3305630.7     -3305645.6      14.905411      289.00571     -1644.5294    
    234600  -3305630.8     -3305646.1      15.317133      296.98871      235.85444    
    234700  -3305630.8     -3305645.6      14.829407      287.53205     -129.32933    
    234800  -3305630.8     -3305645.1      14.357809      278.38808     -502.76404    
    234900  -3305630.7     -3305645.5      14.798352      286.92991      1063.471     
    235000  -3305630.6     -3305645        14.449709      280.16997      242.12093    
    235100  -3305630.4     -3305645.3      14.932343      289.5279       770.75063    
    235200  -3305630.2     -3305644.7      14.518207      281.4981      -1949.2521    
    235300  -3305630       -3305644.6      14.598705      283.05888      3404.2349    
    235400  -3305629.8     -3305645.4      15.674077      303.90962     -1016.3113    
    235500  -3305629.5     -3305645.1      15.556632      301.63244      763.09985    
    235600  -3305629.3     -3305644.6      15.321091      297.06547     -2584.9907    
    235700  -3305629.1     -3305644.9      15.783639      306.03395      1158.7155    
    235800  -3305629       -3305644.6      15.628873      303.03314     -340.55309    
    235900  -3305628.8     -3305644.3      15.45573       299.67602      1710.2476    
    236000  -3305628.7     -3305644.2      15.485536      300.25394      780.03802    
    236100  -3305628.7     -3305645.2      16.467459      319.29274     -1347.8758    
    236200  -3305628.7     -3305643.8      15.121871      293.20272      80.967115    
    236300  -3305628.7     -3305645.3      16.637669      322.593       -1572.269     
    236400  -3305628.7     -3305644.4      15.70146       304.44056     -292.58221    
    236500  -3305628.8     -3305644.6      15.832227      306.97604     -196.72219    
    236600  -3305628.9     -3305644.4      15.528327      301.08363     -841.08096    
    236700  -3305629       -3305645        15.979436      309.83032      223.94049    
    236800  -3305629.1     -3305644.8      15.666353      303.75985     -1504.9253    
    236900  -3305629.2     -3305644.8      15.578484      302.05612      462.58825    
    237000  -3305629.4     -3305644.2      14.835886      287.65766      407.78388    
    237100  -3305629.5     -3305644.8      15.365368      297.92396     -4020.6824    
    237200  -3305629.6     -3305645.3      15.658253      303.6028       3569.584     
    237300  -3305629.8     -3305645.7      15.854421      307.40636     -800.94234    
    237400  -3305629.9     -3305645.2      15.295618      296.57156     -726.07074    
    237500  -3305630.1     -3305645.1      14.997696      290.79504      204.32783    
    237600  -3305630.5     -3305645.6      15.152616      293.79885      92.077327    
    237700  -3305631.1     -3305646.2      15.088026      292.54649     -362.89023    
    237800  -3305631.6     -3305645.6      13.982109      271.10351      1328.5613    
    237900  -3305631.9     -3305646.1      14.156507      274.48497      1426.3298    
    238000  -3305632.1     -3305645.4      13.264419      257.18799     -461.87632    
    238100  -3305632.2     -3305645.9      13.699857      265.63084      23.416906    
    238200  -3305632.1     -3305646.4      14.257414      276.44149     -125.71168    
    238300  -3305632       -3305646.9      14.917522      289.24053     -589.59303    
    238400  -3305631.8     -3305646.3      14.511959      281.37695     -800.07312    
    238500  -3305631.5     -3305646.1      14.643947      283.93611      723.26531    
    238600  -3305631.1     -3305646        14.861151      288.14753      871.18768    
    238700  -3305630.8     -3305645.3      14.547656      282.06908     -1210.7623    
    238800  -3305630.5     -3305644.9      14.356629      278.3652       388.24294    
    238900  -3305630.2     -3305645.1      14.903793      288.97434      455.27636    
    239000  -3305630       -3305645.4      15.432262      299.221       -1651.362     
    239100  -3305629.8     -3305645.6      15.824068      306.81784     -43.567216    
    239200  -3305629.6     -3305643.7      14.105731      273.50047     -2414.7566    
    239300  -3305629.5     -3305645.1      15.631397      303.08207      1630.2158    
    239400  -3305629.3     -3305645.8      16.519869      320.30894      983.80909    
    239500  -3305629.1     -3305645        15.822953      306.79622     -1894.3879    
    239600  -3305629       -3305645.2      16.121502      312.58488      53.06504     
    239700  -3305628.9     -3305644        15.151905      293.78505      1102.1065    
    239800  -3305628.8     -3305644.4      15.586023      302.20231     -2034.8414    
    239900  -3305628.7     -3305644.2      15.514759      300.82055      1269.8803    
    240000  -3305628.6     -3305644.5      15.922145      308.71948      923.47071    
    240100  -3305628.5     -3305644.2      15.673126      303.89118     -1496.3358    
    240200  -3305628.5     -3305644.5      15.955981      309.37555      515.70561    
    240300  -3305628.5     -3305644.7      16.258134      315.23409     -810.78063    
    240400  -3305628.5     -3305644        15.536822      301.24834      2079.2264    
    240500  -3305628.6     -3305644.8      16.180515      313.72911      71.906942    
    240600  -3305628.7     -3305645        16.290747      315.86643     -316.04129    
    240700  -3305628.9     -3305644.3      15.470906      299.97026     -795.53422    
    240800  -3305629.2     -3305643.9      14.727935      285.56456      1019.3236    
    240900  -3305629.5     -3305645.7      16.232619      314.73936     -656.67847    
    241000  -3305629.9     -3305644.7      14.861607      288.15637      3804.9191    
    241100  -3305630.2     -3305645.3      15.081598      292.42186     -579.83038    
    241200  -3305630.4     -3305644.8      14.394735      279.10405     -346.43088    
    241300  -3305630.7     -3305645.9      15.220371      295.11257     -194.61116    
    241400  -3305630.7     -3305645.9      15.161654      293.97408      1116.5741    
    241500  -3305630.8     -3305645.1      14.295665      277.18316     -1753.9578    
    241600  -3305630.8     -3305646.4      15.618304      302.82822     -14.159835    
    241700  -3305630.7     -3305645.4      14.711652      285.24885      572.83134    
    241800  -3305630.6     -3305645.3      14.669169      284.42513      725.79425    
    241900  -3305630.4     -3305645.4      14.985945      290.56721      855.42356    
    242000  -3305630.2     -3305645        14.784745      286.66607      2636.8565    
    242100  -3305630       -3305645.6      15.523956      300.99888     -722.96725    
    242200  -3305629.8     -3305645.5      15.653732      303.51513     -1673.3238    
    242300  -3305629.6     -3305645.8      16.190393      313.92063      2628.8751    
    242400  -3305629.4     -3305645.1      15.704428      304.49809     -2331.3527    
    242500  -3305629.3     -3305644.8      15.509074      300.71032     -338.62266    
    242600  -3305629.2     -3305645        15.85174       307.35438      2361.4622    
    242700  -3305629.1     -3305645.1      16.022897      310.67301     -802.62623    
    242800  -3305629.1     -3305644.7      15.625212      302.96215      1880.6421    
    242900  -3305629       -3305644.2      15.131677      293.39285     -3244.3553    
    243000  -3305629       -3305645.6      16.505994      320.03991      1695.15      
    243100  -3305629.1     -3305644.8      15.740713      305.20164      267.79105    
    243200  -3305629.1     -3305644.5      15.395377      298.50582     -102.38766    
    243300  -3305629.1     -3305644.9      15.813189      306.60689     -588.98529    
    243400  -3305629.1     -3305645.1      16.012529      310.47198      871.34722    
    243500  -3305629.1     -3305645.1      15.966561      309.58068     -1487.2939    
    243600  -3305629.2     -3305645.7      16.518224      320.27705      3613.146     
    243700  -3305629.2     -3305644.7      15.446722      299.50136     -1872.1936    
    243800  -3305629.3     -3305645.1      15.800565      306.36212     -354.44348    
    243900  -3305629.4     -3305645.4      16.064259      311.47498      2961.8016    
    244000  -3305629.5     -3305644.8      15.309597      296.8426      -872.21455    
    244100  -3305629.6     -3305644.8      15.270976      296.09376     -1809.433     
    244200  -3305629.7     -3305645.2      15.465974      299.87463      2282.8929    
    244300  -3305629.9     -3305644.4      14.517123      281.47707     -112.92464    
    244400  -3305630.1     -3305645.4      15.232503      295.34779      1675.0202    
    244500  -3305630.5     -3305645.7      15.20158       294.74823     -1990.1788    
    244600  -3305630.8     -3305645.8      14.991788      290.6805      -69.087524    
    244700  -3305631.1     -3305645.3      14.249213      276.28248     -1093.6478    
    244800  -3305631.3     -3305645.8      14.47968       280.75107     -111.10817    
    244900  -3305631.4     -3305646.6      15.16232       293.98701     -263.9405     
    245000  -3305631.4     -3305645.7      14.292692      277.1255       705.31952    
    245100  -3305631.4     -3305646.1      14.661603      284.27844     -997.18109    
    245200  -3305631.3     -3305646.3      14.928895      289.46105     -403.03532    
    245300  -3305631.1     -3305646.5      15.412151      298.83104      1473.7858    
    245400  -3305630.9     -3305645.8      14.878739      288.48856     -1122.821     
    245500  -3305630.6     -3305645.2      14.661402      284.27454      676.37353    
    245600  -3305630.2     -3305645.1      14.921737      289.32225      824.72085    
    245700  -3305629.8     -3305644.8      14.934084      289.56166     -1346.7274    
    245800  -3305629.5     -3305645.8      16.309785      316.23555      959.95713    
    245900  -3305629.4     -3305645.7      16.385311      317.69996     -225.34404    
    246000  -3305629.3     -3305645        15.666468      303.76208     -2289.1415    
    246100  -3305629.3     -3305644.4      15.134691      293.45129      2296.5009    
    246200  -3305629.2     -3305645.4      16.152501      313.18592     -2428.6695    
    246300  -3305629.2     -3305644.7      15.465672      299.86879     -1096.8414    
    246400  -3305629.2     -3305645.5      16.299948      316.04482      2810.7167    
    246500  -3305629.2     -3305644.7      15.520084      300.92379      932.31493    
    246600  -3305629.2     -3305644.2      15.00845       291.00357     -315.51117    
    246700  -3305629.3     -3305644.9      15.607557      302.61984      2442.7917    
    246800  -3305629.3     -3305644.5      15.138039      293.51621     -2178.1277    
    246900  -3305629.4     -3305645.4      15.960889      309.47071     -59.975956    
    247000  -3305629.5     -3305645.4      15.880442      307.9109       733.15539    
    247100  -3305629.6     -3305644.4      14.793528      286.83638     -1127.3305    
    247200  -3305629.7     -3305645.6      15.832049      306.97258     -1761.284     
    247300  -3305629.8     -3305645.6      15.823867      306.81395      1364.0104    
    247400  -3305629.9     -3305645.1      15.105722      292.88959      176.10108    
    247500  -3305630.1     -3305644.4      14.295635      277.18256     -2284.8962    
    247600  -3305630.3     -3305646.5      16.243659      314.95341      1628.9082    
    247700  -3305630.5     -3305645.4      14.966063      290.18171     -2214.7011    
    247800  -3305630.7     -3305644.8      14.098275      273.3559       180.36351    
    247900  -3305630.8     -3305645.7      14.808625      287.12909     -70.90344     
    248000  -3305631       -3305646.4      15.38698       298.343       -223.16019    
    248100  -3305631.2     -3305646        14.763163      286.24763      1026.9142    
    248200  -3305631.3     -3305645.9      14.563441      282.37514      686.32134    
    248300  -3305631.4     -3305646        14.577289      282.64365      414.1285     
    248400  -3305631.5     -3305646.3      14.807606      287.10934     -1915.3928    
    248500  -3305631.5     -3305646.8      15.298117      296.62        -245.70933    
    248600  -3305631.4     -3305646.1      14.653653      284.1243       1617.006     
    248700  -3305631.2     -3305646.1      14.911576      289.12524     -767.17783    
    248800  -3305631       -3305645.7      14.727149      285.54932      1985.3747    
    248900  -3305630.5     -3305645.4      14.837025      287.67976     -1807.5274    
    249000  -3305630.1     -3305645.8      15.652194      303.48533      685.84852    
    249100  -3305629.7     -3305645.2      15.469255      299.93827     -855.17671    
    249200  -3305629.5     -3305644.4      14.928428      289.452        139.45455    
    249300  -3305629.2     -3305644.8      15.587591      302.23271      384.00119    
    249400  -3305629.1     -3305644.6      15.526846      301.0549      -1977.1573    
    249500  -3305629       -3305645        16.032645      310.862        3303.844     
    249600  -3305628.9     -3305644.8      15.850129      307.32315      330.93318    
    249700  -3305628.9     -3305645.2      16.255605      315.18504     -995.34568    
    249800  -3305628.9     -3305644.8      15.923893      308.75337     -628.84598    
    249900  -3305628.9     -3305644.9      15.942192      309.10818      530.68963    
    250000  -3305629       -3305644.6      15.626767      302.99232     -155.57616    
Loop time of 4353.98 on 72 procs for 50000 steps with 400 atoms

Performance: 1.984 ns/day, 12.094 hours/ns, 11.484 timesteps/s, 4.594 katom-step/s
91.4% CPU use with 72 MPI tasks x 1 OpenMP threads

MPI task timing breakdown:
Section |  min time  |  avg time  |  max time  |%varavg| %total
---------------------------------------------------------------
Pair    | 420.06     | 3148.5     | 4182.7     |1282.5 | 72.31
Bond    | 0.015156   | 0.033163   | 0.059084   |   4.5 |  0.00
Neigh   | 0.017154   | 0.052084   | 0.071687   |   4.5 |  0.00
Comm    | 167.6      | 1201.6     | 3928.7     |2074.8 | 27.60
Output  | 1.3189     | 1.3205     | 1.4044     |   0.9 |  0.03
Modify  | 1.7708     | 1.996      | 7.0599     |  57.7 |  0.05
Other   |            | 0.4759     |            |       |  0.01

Nlocal:        5.55556 ave           9 max           0 min
Histogram: 2 1 2 3 9 15 18 11 9 2
Nghost:        380.792 ave         391 max         365 min
Histogram: 2 1 3 9 2 17 14 6 12 6
Neighs:              0 ave           0 max           0 min
Histogram: 72 0 0 0 0 0 0 0 0 0
FullNghs:      470.222 ave         750 max           0 min
Histogram: 2 1 2 4 8 15 15 9 9 7

Total # of neighbors = 33856
Ave neighs/atom = 84.64
Ave special neighs/atom = 0
Neighbor list builds = 1560
Dangerous builds = 0
unfix npt_equ


write_restart restart.equil
System init for write_restart ...
quit
